 Gaussian 03, Revision D.01,
 Gaussian 03:  AM64L-G03RevD.01 13-Oct-2005

 -------------------------------------
 # freq nosymm b3lyp/cbsb7 iop(7/33=1)
 -------------------------------------

 -----------
 Benzyl Freq
 -----------
 Symbolic Z-matrix:
 Charge =  0 Multiplicity = 2

                          Input orientation:
 ---------------------------------------------------------------------
 Center     Atomic     Atomic              Coordinates (Angstroms)
 Number     Number      Type              X           Y           Z
 ---------------------------------------------------------------------
    1          6             0        0.000000    0.000000   -1.909310
    2          6             0        0.000000    1.209730   -1.204620
    3          6             0        0.000000    1.216370    0.178170
    4          6             0        0.000000    0.000000    0.920890
    5          6             0        0.000000   -1.216370    0.178170
    6          6             0        0.000000   -1.209730   -1.204620
    7          1             0        0.000000    0.000000   -2.993020
    8          1             0        0.000000    2.148970   -1.746920
    9          1             0        0.000000    2.157570    0.717650
   10          1             0        0.000000   -2.157570    0.717650
   11          1             0        0.000000   -2.148970   -1.746920
   12          6             0        0.000000    0.000000    2.324930
   13          1             0        0.000000    0.927270    2.883990
   14          1             0        0.000000   -0.927270    2.883990
 ---------------------------------------------------------------------

 SCF Done:  E(UB+HF-LYP) =  -270.983927995     A.U. after   18 cycles

 Alpha  occ. eigenvalues --  -10.18557 -10.17781 -10.17751 -10.17749 -10.17719
 Alpha  occ. eigenvalues --  -10.17492 -10.17487  -0.86252  -0.77981  -0.75266
 Alpha  occ. eigenvalues --   -0.68160  -0.60953  -0.58488  -0.51631  -0.47264
 Alpha  occ. eigenvalues --   -0.46557  -0.42692  -0.42156  -0.40065  -0.38230
 Alpha  occ. eigenvalues --   -0.35959  -0.34192  -0.29891  -0.26527  -0.18781
 Alpha virt. eigenvalues --   -0.01207   0.01155   0.04541   0.06751   0.07082
 Alpha virt. eigenvalues --    0.09985   0.10569   0.13574   0.13958   0.14722
 Alpha virt. eigenvalues --    0.21803   0.27187   0.27651   0.29076   0.30266

  Beta  occ. eigenvalues --  -10.18803 -10.17666 -10.17663 -10.17408 -10.17408
  Beta  occ. eigenvalues --  -10.17394 -10.16688  -0.85858  -0.77170  -0.74955
  Beta  occ. eigenvalues --   -0.66350  -0.60744  -0.57965  -0.51286  -0.46959
  Beta  occ. eigenvalues --   -0.46301  -0.42609  -0.41828  -0.39558  -0.37094
  Beta  occ. eigenvalues --   -0.35699  -0.34095  -0.27400  -0.25622
  Beta virt. eigenvalues --   -0.08840  -0.00407   0.03195   0.04635   0.07068
  Beta virt. eigenvalues --    0.07139   0.10208   0.10640   0.13726   0.14139
  Beta virt. eigenvalues --    0.15546   0.21866   0.27236   0.27885   0.29192

 Mulliken atomic charges:
              1
     1  C   -0.092690
     2  C   -0.094660
     3  C   -0.070043
     4  C   -0.082770
     5  C   -0.070043
     6  C   -0.094660
     7  H    0.096276
     8  H    0.094228
     9  H    0.088130
    10  H    0.088130
    11  H    0.094228
    12  C   -0.166770
    13  H    0.105322
    14  H    0.105322
 Sum of Mulliken charges=   0.00000

 Dipole moment (field-independent basis, Debye):
    X=     0.0000    Y=     0.0000    Z=    -0.1321  Tot=     0.1321
 Quadrupole moment (field-independent basis, Debye-Ang):
   XX=   -46.2860   YY=   -37.2493   ZZ=   -37.6774
   XY=     0.0000   XZ=     0.0000   YZ=     0.0000

  Exact polarizability:  32.997   0.000  80.727   0.000   0.000 112.834
 Approx polarizability:  50.486   0.000 129.319   0.000   0.000 184.895

                     1                      2                      3
                    B1                     B2                     A2
 Frequencies --   198.6159               359.1572               390.2555
 Red. masses --     3.3400                 2.3929                 2.2578
 Frc consts  --     0.0776                 0.1819                 0.2026
 IR Inten    --     1.3451                 0.1480                 0.0000

                     4                      5                      6
                    B1                     A2                     A1
 Frequencies --   478.5007               502.0929               534.2217
 Red. masses --     2.6621                 1.1324                 5.8910
 Frc consts  --     0.3591                 0.1682                 0.9906
 IR Inten    --    15.5167                 0.0000                 0.2452

                     7                      8                      9
                    B2                     B1                     B1
 Frequencies --   628.2980               684.4766               706.8848
 Red. masses --     6.4279                 1.7461                 1.2648
 Frc consts  --     1.4950                 0.4820                 0.3724
 IR Inten    --     0.0024                53.5234                 2.1644

                    10                     11                     12
                    B1                     A2                     A1
 Frequencies --   773.6755               829.1008               831.1783
 Red. masses --     2.0766                 1.2652                 4.5665
 Frc consts  --     0.7324                 0.5124                 1.8588
 IR Inten    --    57.2488                 0.0000                 0.3741

                    13                     14                     15
                    B1                     B2                     A2
 Frequencies --   898.3735               969.7566               971.5497
 Red. masses --     1.4547                 1.4775                 1.3518
 Frc consts  --     0.6917                 0.8187                 0.7518
 IR Inten    --     4.9238                 1.6613                 0.0000

                    16                     17                     18
                    B1                     A1                     A1
 Frequencies --   989.5290               994.7665              1036.1401
 Red. masses --     1.2826                 5.8344                 2.1996
 Frc consts  --     0.7399                 3.4017                 1.3913
 IR Inten    --     0.0005                 0.6459                 2.1354

                    19                     20                     21
                    B2                     B2                     A1
 Frequencies --  1116.3826              1174.6910              1184.4990
 Red. masses --     1.4324                 1.1374                 1.2362
 Frc consts  --     1.0518                 0.9247                 1.0219
 IR Inten    --     2.8979                 0.0602                 0.0630

                    22                     23                     24
                    A1                     B2                     B2
 Frequencies --  1287.8943              1327.7852              1351.9553
 Red. masses --     2.6088                 4.3298                 1.4891
 Frc consts  --     2.5495                 4.4975                 1.6036
 IR Inten    --     2.3914                 1.0621                 0.2457

                    25                     26                     27
                    B2                     A1                     A1
 Frequencies --  1473.7739              1489.6126              1502.1160
 Red. masses --     2.3704                 1.3106                 2.0182
 Frc consts  --     3.0334                 1.7134                 2.6830
 IR Inten    --     6.2759                 0.0840                10.0665

                    28                     29                     30
                    B2                     A1                     A1
 Frequencies --  1577.0553              1598.4579              3144.7114
 Red. masses --     4.2337                 4.7550                 1.0537
 Frc consts  --     6.2039                 7.1581                 6.1396
 IR Inten    --     1.0725                 1.1769                 5.4492

                    31                     32                     33
                    A1                     B2                     A1
 Frequencies --  3158.0310              3160.5812              3172.8060
 Red. masses --     1.0845                 1.0867                 1.0905
 Frc consts  --     6.3725                 6.3959                 6.4677
 IR Inten    --     8.4175                 0.4501                 6.8563

                    34                     35                     36
                    B2                     A1                     B2
 Frequencies --  3177.5344              3190.9161              3241.4746
 Red. masses --     1.0946                 1.0974                 1.1178
 Frc consts  --     6.5115                 6.5832                 6.9201
 IR Inten    --    41.1585                14.7508                10.1167

 - Thermochemistry -
 -------------------
 Temperature   298.150 Kelvin.  Pressure   1.00000 Atm.
 Atom  1 has atomic number  6 and mass  12.00000

 Molecular mass:    91.05478 amu.
 Principal axes and moments of inertia in atomic units:
                           1         2         3
     EIGENVALUES --   325.16926 666.63088 991.80014
           X            0.00000   0.00000   1.00000
           Y            0.00000   1.00000   0.00000
           Z            1.00000   0.00000   0.00000
 This molecule is an asymmetric top.
 Rotational symmetry number  2.
 Rotational temperatures (Kelvin)      0.26637     0.12993     0.08733
 Rotational constants (GHZ):           5.55016     2.70726     1.81966
 Zero-point vibrational energy     299705.5 (Joules/Mol)
                                   71.63134 (Kcal/Mol)
 Warning -- explicit consideration of   6 degrees of freedom as
           vibrations may cause significant error
 Vibrational temperatures:    285.76   516.75   561.49   688.45   722.40
          (Kelvin)            768.62   903.98   984.81  1017.05  1113.15
                             1192.89  1195.88  1292.56  1395.26  1397.84
                             1423.71  1431.25  1490.77  1606.22  1690.12
                             1704.23  1852.99  1910.38  1945.16  2120.43
                             2143.22  2161.21  2269.03  2299.82  4524.53
                             4543.70  4547.37  4564.95  4571.76  4591.01
                             4663.75

 Zero-point correction=                           0.114152 (Hartree/Particle)
 Thermal correction to Energy=                    0.119839
 Thermal correction to Enthalpy=                  0.120783
 Thermal correction to Gibbs Free Energy=         0.085126
 Sum of electronic and zero-point Energies=           -270.869776
 Sum of electronic and thermal Energies=              -270.864089
 Sum of electronic and thermal Enthalpies=            -270.863145
 Sum of electronic and thermal Free Energies=         -270.898802

                     E (Thermal)             CV                S
                      KCal/Mol        Cal/Mol-Kelvin    Cal/Mol-Kelvin
 Total                   75.200             23.012             75.047
 Electronic               0.000              0.000              1.377
 Translational            0.889              2.981             39.439
 Rotational               0.889              2.981             25.489
 Vibrational             73.423             17.050              8.742
 Vibration  1             0.637              1.842              2.146
 Vibration  2             0.734              1.556              1.126
 Vibration  3             0.758              1.491              0.999
 Vibration  4             0.835              1.298              0.714
 Vibration  5             0.857              1.245              0.653
 Vibration  6             0.889              1.174              0.578

 Optimization completed.
    -- Stationary point found.
 Normal termination of Gaussian 03 at Tue Mar  7 14:10:50 2017.
