 Gaussian 03, Revision D.01,
 Gaussian 03:  AM64L-G03RevD.01 13-Oct-2005

 ---------------------------------
 # opt=(addred) b3lyp/cbsb7 nosymm
 ---------------------------------

 --------------------------
 Benzyl Rot1 Hindered Rotor
 --------------------------
 Symbolic Z-matrix:
 Charge =  0 Multiplicity = 2

 SCF Done:  E(UB+HF-LYP) =  -270.983927995     A.U. after   18 cycles
 Optimization completed.
    -- Stationary point found.
 SCF Done:  E(UB+HF-LYP) =  -270.983465223     A.U. after   14 cycles
 SCF Done:  E(UB+HF-LYP) =  -270.983487875     A.U. after   13 cycles
 SCF Done:  E(UB+HF-LYP) =  -270.983488557     A.U. after   10 cycles
 Optimization completed.
 SCF Done:  E(UB+HF-LYP) =  -270.982141367     A.U. after   14 cycles
 SCF Done:  E(UB+HF-LYP) =  -270.982181127     A.U. after   13 cycles
 SCF Done:  E(UB+HF-LYP) =  -270.982181526     A.U. after   10 cycles
 SCF Done:  E(UB+HF-LYP) =  -270.979983114     A.U. after   14 cycles
 SCF Done:  E(UB+HF-LYP) =  -270.980059892     A.U. after   13 cycles
 SCF Done:  E(UB+HF-LYP) =  -270.980060278     A.U. after   10 cycles
 SCF Done:  E(UB+HF-LYP) =  -270.979923396     A.U. after   14 cycles
 SCF Done:  E(UB+HF-LYP) =  -270.980054995     A.U. after   15 cycles
 SCF Done:  E(UB+HF-LYP) =  -270.980055533     A.U. after   10 cycles
 SCF Done:  E(UB+HF-LYP) =  -270.982102239     A.U. after   14 cycles
 SCF Done:  E(UB+HF-LYP) =  -270.982177718     A.U. after   14 cycles
 SCF Done:  E(UB+HF-LYP) =  -270.982177911     A.U. after   10 cycles
 SCF Done:  E(UB+HF-LYP) =  -270.983448903     A.U. after   14 cycles
 SCF Done:  E(UB+HF-LYP) =  -270.983487850     A.U. after   13 cycles
    -- Stationary point found.
 SCF Done:  E(UB+HF-LYP) =  -270.983906541     A.U. after   14 cycles
 SCF Done:  E(UB+HF-LYP) =  -270.983928653     A.U. after   12 cycles
 Optimization completed.
    -- Stationary point found.

                          Input orientation:
 ---------------------------------------------------------------------
 Center     Atomic     Atomic              Coordinates (Angstroms)
 Number     Number      Type              X           Y           Z
 ---------------------------------------------------------------------
    1          6             0       -0.016720    0.001136   -1.909269
    2          6             0        0.481161    1.106210   -1.208292
    3          6             0        0.496186    1.111440    0.174340
    4          6             0        0.007951   -0.000439    0.920908
    5          6             0       -0.492573   -1.111792    0.181704
    6          6             0       -0.502029   -1.104855   -1.200995
    7          1             0       -0.026134    0.001826   -2.992950
    8          1             0        0.858021    1.964624   -1.753639
    9          1             0        0.883757    1.970783    0.711194
   10          1             0       -0.870211   -1.971973    0.724287
   11          1             0       -0.888249   -1.962755   -1.740555
   12          6             0        0.019757   -0.001167    2.324790
   13          1             0        0.401301    0.845595    2.881612
   14          1             0       -0.352218   -0.848633    2.886895
 ---------------------------------------------------------------------

 Alpha  occ. eigenvalues --  -10.18563 -10.17784 -10.17755 -10.17752 -10.17721
 Alpha  occ. eigenvalues --  -10.17494 -10.17489  -0.86247  -0.77978  -0.75267
 Alpha  occ. eigenvalues --   -0.68158  -0.60950  -0.58487  -0.51631  -0.47260
 Alpha  occ. eigenvalues --   -0.46561  -0.42694  -0.42154  -0.40060  -0.38227
 Alpha  occ. eigenvalues --   -0.35964  -0.34188  -0.29890  -0.26530  -0.18779
 Alpha virt. eigenvalues --   -0.01207   0.01152   0.04542   0.06750   0.07082
 Alpha virt. eigenvalues --    0.09985   0.10569   0.13572   0.13954   0.14716
 Alpha virt. eigenvalues --    0.21800   0.27183   0.27650   0.29066   0.30267

  Beta  occ. eigenvalues --  -10.18808 -10.17669 -10.17665 -10.17411 -10.17411
  Beta  occ. eigenvalues --  -10.17397 -10.16690  -0.85852  -0.77166  -0.74956
  Beta  occ. eigenvalues --   -0.66349  -0.60742  -0.57963  -0.51286  -0.46956
  Beta  occ. eigenvalues --   -0.46305  -0.42611  -0.41826  -0.39553  -0.37090
  Beta  occ. eigenvalues --   -0.35703  -0.34091  -0.27397  -0.25625
  Beta virt. eigenvalues --   -0.08842  -0.00406   0.03193   0.04635   0.07067
  Beta virt. eigenvalues --    0.07139   0.10208   0.10639   0.13724   0.14135
  Beta virt. eigenvalues --    0.15540   0.21863   0.27233   0.27884   0.29182

 Mulliken atomic charges:
              1
     1  C   -0.092694
     2  C   -0.094676
     3  C   -0.070051
     4  C   -0.082824
     5  C   -0.070076
     6  C   -0.094668
     7  H    0.096286
     8  H    0.094254
     9  H    0.088165
    10  H    0.088171
    11  H    0.094254
    12  C   -0.166772
    13  H    0.105314
    14  H    0.105318
 Sum of Mulliken charges=   0.00000

 Dipole moment (field-independent basis, Debye):
    X=    -0.0008    Y=    -0.0001    Z=    -0.1321  Tot=     0.1321
 Quadrupole moment (field-independent basis, Debye-Ang):
   XX=   -44.7944   YY=   -38.7428   ZZ=   -37.6749
   XY=     3.3557   XZ=     0.0639   YZ=    -0.0301

 Normal termination of Gaussian 03 at Tue Mar  7 15:03:16 2017.
