 Gaussian 03, Revision D.01,
 Gaussian 03:  AM64L-G03RevD.01 13-Oct-2005

 ---------
 # cbs-qb3
 ---------

 -------------
 Benzyl Energy
 -------------
 Symbolic Z-matrix:
 Charge =  0 Multiplicity = 2

 SCF Done:  E(UB+HF-LYP) =  -270.983924846     A.U. after   18 cycles
 SCF Done:  E(UB+HF-LYP) =  -270.983927998     A.U. after    8 cycles
 Optimization completed.
    -- Stationary point found.
 Normal termination of Gaussian 03 at Thu Feb 16 17:00:30 2017.

 -------------------------------------------------------
 #N Geom=AllCheck Guess=Read SCRF=Check B3LYP/CBSB7 Freq
 -------------------------------------------------------

 Benzyl Energy
 -------------
 Redundant internal coordinates taken from checkpoint file:
 BenzylEnergy.chk
 Charge =  0 Multiplicity = 2

 SCF Done:  E(UB+HF-LYP) =  -270.983927998     A.U. after    1 cycles

  Exact polarizability:  32.997   0.000  80.726   0.000   0.000 112.834
 Approx polarizability:  50.486   0.000 129.319   0.000   0.000 184.896

                     1                      2                      3
                    B1                     B2                     A2
 Frequencies --   198.6130               359.1527               390.2513
 Red. masses --     3.3400                 2.3928                 2.2576
 Frc consts  --     0.0776                 0.1819                 0.2026
 IR Inten    --     1.3452                 0.1480                 0.0000

                     4                      5                      6
                    B1                     A2                     A1
 Frequencies --   478.4989               502.0851               534.2216
 Red. masses --     2.6620                 1.1324                 5.8911
 Frc consts  --     0.3591                 0.1682                 0.9906
 IR Inten    --    15.5175                 0.0000                 0.2452

                     7                      8                      9
                    B2                     B1                     B1
 Frequencies --   628.2967               684.4735               706.8852
 Red. masses --     6.4279                 1.7459                 1.2648
 Frc consts  --     1.4950                 0.4819                 0.3724
 IR Inten    --     0.0024                53.5244                 2.1667

                    10                     11                     12
                    B1                     A2                     A1
 Frequencies --   773.6674               829.0944               831.1769
 Red. masses --     2.0767                 1.2652                 4.5665
 Frc consts  --     0.7324                 0.5124                 1.8587
 IR Inten    --    57.2440                 0.0000                 0.3741

                    13                     14                     15
                    B1                     B2                     A2
 Frequencies --   898.3736               969.7510               971.5368
 Red. masses --     1.4547                 1.4775                 1.3518
 Frc consts  --     0.6917                 0.8187                 0.7518
 IR Inten    --     4.9250                 1.6611                 0.0000

                    16                     17                     18
                    B1                     A1                     A1
 Frequencies --   989.5143               994.7644              1036.1316
 Red. masses --     1.2826                 5.8345                 2.1996
 Frc consts  --     0.7399                 3.4017                 1.3913
 IR Inten    --     0.0004                 0.6460                 2.1355

                    19                     20                     21
                    B2                     B2                     A1
 Frequencies --  1116.3809              1174.6814              1184.4971
 Red. masses --     1.4325                 1.1374                 1.2362
 Frc consts  --     1.0519                 0.9247                 1.0219
 IR Inten    --     2.8978                 0.0603                 0.0631

                    22                     23                     24
                    A1                     B2                     B2
 Frequencies --  1287.9025              1327.7746              1351.9539
 Red. masses --     2.6088                 4.3300                 1.4891
 Frc consts  --     2.5496                 4.4976                 1.6036
 IR Inten    --     2.3915                 1.0621                 0.2456

                    25                     26                     27
                    B2                     A1                     A1
 Frequencies --  1473.7664              1489.6144              1502.1177
 Red. masses --     2.3705                 1.3107                 2.0179
 Frc consts  --     3.0335                 1.7136                 2.6827
 IR Inten    --     6.2757                 0.0832                10.0672

                    28                     29                     30
                    B2                     A1                     A1
 Frequencies --  1577.0464              1598.4502              3144.7218
 Red. masses --     4.2335                 4.7551                 1.0537
 Frc consts  --     6.2035                 7.1582                 6.1397
 IR Inten    --     1.0725                 1.1768                 5.4480

                    31                     32                     33
                    A1                     B2                     A1
 Frequencies --  3158.0542              3160.5899              3172.8088
 Red. masses --     1.0845                 1.0867                 1.0905
 Frc consts  --     6.3726                 6.3960                 6.4677
 IR Inten    --     8.4269                 0.4680                 6.8380

                    34                     35                     36
                    B2                     A1                     B2
 Frequencies --  3177.5647              3190.9421              3241.4809
 Red. masses --     1.0946                 1.0974                 1.1178
 Frc consts  --     6.5116                 6.5834                 6.9201
 IR Inten    --    41.1397                14.7603                10.1171

 - Thermochemistry -
 -------------------
 Temperature   298.150 Kelvin.  Pressure   1.00000 Atm.
 Atom  1 has atomic number  6 and mass  12.00000

 Molecular mass:    91.05478 amu.
 Principal axes and moments of inertia in atomic units:
                           1         2         3
     EIGENVALUES --   325.17020 666.63079 991.80099
           X            0.00000   0.00000   1.00000
           Y            0.00000   1.00000   0.00000
           Z            1.00000   0.00000   0.00000
 This molecule is an asymmetric top.
 Rotational symmetry number  2.
 Rotational temperatures (Kelvin)      0.26636     0.12993     0.08733
 Rotational constants (GHZ):           5.55014     2.70726     1.81966
 Zero-point vibrational energy     299705.4 (Joules/Mol)
                                   71.63132 (Kcal/Mol)
 Warning -- explicit consideration of   6 degrees of freedom as
           vibrations may cause significant error
 Vibrational temperatures:    285.76   516.74   561.48   688.45   722.39
          (Kelvin)            768.62   903.98   984.80  1017.05  1113.13
                             1192.88  1195.88  1292.56  1395.25  1397.82
                             1423.69  1431.24  1490.76  1606.22  1690.10
                             1704.23  1853.00  1910.37  1945.16  2120.42
                             2143.22  2161.21  2269.02  2299.81  4524.55
                             4543.73  4547.38  4564.96  4571.80  4591.05
                             4663.76

 Zero-point correction=                           0.114152 (Hartree/Particle)
 Thermal correction to Energy=                    0.119839
 Thermal correction to Enthalpy=                  0.120783
 Thermal correction to Gibbs Free Energy=         0.085126
 Sum of electronic and zero-point Energies=           -270.869776
 Sum of electronic and thermal Energies=              -270.864089
 Sum of electronic and thermal Enthalpies=            -270.863145
 Sum of electronic and thermal Free Energies=         -270.898802

                     E (Thermal)             CV                S
                      KCal/Mol        Cal/Mol-Kelvin    Cal/Mol-Kelvin
 Total                   75.200             23.012             75.047
 Electronic               0.000              0.000              1.377
 Translational            0.889              2.981             39.439
 Rotational               0.889              2.981             25.489
 Vibrational             73.423             17.051              8.742
 Vibration  1             0.637              1.842              2.146
 Vibration  2             0.734              1.556              1.126
 Vibration  3             0.758              1.491              0.999
 Vibration  4             0.835              1.298              0.714
 Vibration  5             0.857              1.245              0.653
 Vibration  6             0.889              1.174              0.578

 Optimization completed.
    -- Stationary point found.
 Normal termination of Gaussian 03 at Thu Feb 16 17:03:10 2017.

 ---------------------------------------------------------
 #N Geom=AllCheck Guess=Read SCRF=Check CCSD(T)/6-31+G(d')
 ---------------------------------------------------------

 Benzyl Energy
 -------------
 Redundant internal coordinates taken from checkpoint file:
 BenzylEnergy.chk
 Charge =  0 Multiplicity = 2

 SCF Done:  E(UHF) =  -269.142639957     A.U. after   19 cycles
 CCSD(T)= -0.27009220331D+03
 .0375843\CCSD=-270.0520915\CCSD(T)=-270.0922033\S2=1.337808\S2-1=1.187
 Normal termination of Gaussian 03 at Thu Feb 16 17:19:35 2017.

 ---------------------------------------------------
 #N Geom=AllCheck Guess=Read SCRF=Check MP4SDQ/CBSB4
 ---------------------------------------------------

 Benzyl Energy
 -------------
 Redundant internal coordinates taken from checkpoint file:
 BenzylEnergy.chk
 Charge =  0 Multiplicity = 2

 SCF Done:  E(UHF) =  -269.153985306     A.U. after   15 cycles
 Normal termination of Gaussian 03 at Thu Feb 16 17:21:09 2017.

 ----------------------------------------------------------------------
 #N Geom=AllCheck Guess=Read SCRF=Check MP2/CBSB3 CBSExtrap=(NMin=10,Mi
 nPop)
 ----------------------------------------------------------------------

 Benzyl Energy
 -------------
 Redundant internal coordinates taken from checkpoint file:
 BenzylEnergy.chk
 Charge =  0 Multiplicity = 2

                         Standard orientation:
 ---------------------------------------------------------------------
 Center     Atomic     Atomic              Coordinates (Angstroms)
 Number     Number      Type              X           Y           Z
 ---------------------------------------------------------------------
    1          6             0        0.000000    0.000000   -1.836211
    2          6             0        0.000000    1.209734   -1.131520
    3          6             0        0.000000    1.216371    0.251270
    4          6             0        0.000000    0.000000    0.993993
    5          6             0        0.000000   -1.216371    0.251270
    6          6             0        0.000000   -1.209734   -1.131520
    7          1             0        0.000000    0.000000   -2.919919
    8          1             0        0.000000    2.148968   -1.673817
    9          1             0        0.000000    2.157573    0.790749
   10          1             0        0.000000   -2.157573    0.790749
   11          1             0        0.000000   -2.148968   -1.673817
   12          6             0        0.000000    0.000000    2.398028
   13          1             0        0.000000    0.927265    2.957093
   14          1             0        0.000000   -0.927265    2.957093
 ---------------------------------------------------------------------

 SCF Done:  E(UHF) =  -269.221029720     A.U. after   15 cycles
 E2 =    -0.1026246420D+01 EUMP2 =    -0.27024727614066D+03
 E2(CBS)=      -1.126997 CBS-Int=       0.032989 OIii=       8.234039

 The electronic state is 2-B1.
 Alpha  occ. eigenvalues --  -11.23447 -11.23433 -11.23430 -11.23427 -11.22953
 Alpha  occ. eigenvalues --  -11.22058 -11.22052  -1.15453  -1.05122  -1.01803
 Alpha  occ. eigenvalues --   -0.94009  -0.82131  -0.79036  -0.69578  -0.64140
 Alpha  occ. eigenvalues --   -0.63921  -0.58548  -0.57918  -0.55598  -0.52413
 Alpha  occ. eigenvalues --   -0.50506  -0.48150  -0.42085  -0.37234  -0.31271
 Alpha virt. eigenvalues --    0.03880   0.04797   0.04955   0.06377   0.06590
 Alpha virt. eigenvalues --    0.08716   0.09388   0.10476   0.11840   0.13174
 Alpha virt. eigenvalues --    0.14061   0.15190   0.15677   0.16048   0.16751

  Beta  occ. eigenvalues --  -11.24390 -11.23383 -11.23380 -11.21955 -11.21950
  Beta  occ. eigenvalues --  -11.21945 -11.21437  -1.14875  -1.04040  -1.01407
  Beta  occ. eigenvalues --   -0.88047  -0.81938  -0.78431  -0.68788  -0.63741
  Beta  occ. eigenvalues --   -0.63711  -0.58492  -0.57428  -0.54734  -0.50175
  Beta  occ. eigenvalues --   -0.50109  -0.48056  -0.37261  -0.35698
  Beta virt. eigenvalues --    0.03914   0.04806   0.05008   0.06383   0.06626
  Beta virt. eigenvalues --    0.07770   0.08729   0.09407   0.10560   0.12237
  Beta virt. eigenvalues --    0.13333   0.13535   0.15410   0.15763   0.16780

 Mulliken atomic charges:
              1
     1  C   -0.293132
     2  C   -0.013231
     3  C   -0.850996
     4  C    1.348032
     5  C   -0.850996
     6  C   -0.013231
     7  H    0.159727
     8  H    0.161931
     9  H    0.108144
    10  H    0.108144
    11  H    0.161931
    12  C   -0.259092
    13  H    0.116383
    14  H    0.116383
 Sum of Mulliken charges=   0.00000

 Dipole moment (field-independent basis, Debye):
    X=     0.0000    Y=     0.0000    Z=    -0.0444  Tot=     0.0444
 Quadrupole moment (field-independent basis, Debye-Ang):
   XX=   -47.1279   YY=   -37.6793   ZZ=   -37.9663
   XY=     0.0000   XZ=     0.0000   YZ=     0.0000

 Normal termination of Gaussian 03 at Thu Feb 16 17:28:06 2017.
