 Gaussian 16, Revision B.01,
 Gaussian 16:  EM64L-G16RevB.01 20-Dec-2017

 -------------------------------------------
 #P freq B3LYP/6-311+G(3df,2p) iop(2/9=2000)
 -------------------------------------------

 ---------
 N4H6 freq
 ---------
 Symbolic Z-matrix:
 Charge =  0 Multiplicity = 1

                         Standard orientation:
 ---------------------------------------------------------------------
 Center     Atomic      Atomic             Coordinates (Angstroms)
 Number     Number       Type             X           Y           Z
 ---------------------------------------------------------------------
      1          7           0        1.359965    0.537228    0.184462
      2          1           0        2.339584    0.300930    0.289911
      3          1           0        1.271374    1.271160   -0.515440
      4          7           0        0.669838   -0.659561   -0.217548
      5          1           0        0.616180   -0.715758   -1.231681
      6          7           0       -0.669836   -0.659561    0.217548
      7          1           0       -0.616179   -0.715757    1.231682
      8          7           0       -1.359967    0.537227   -0.184463
      9          1           0       -2.339586    0.300928   -0.289904
     10          1           0       -1.271374    1.271158    0.515440
 ---------------------------------------------------------------------

 SCF Done:  E(RB3LYP) =  -222.609821178     A.U. after   11 cycles

 The electronic state is 1-A.
 Alpha  occ. eigenvalues --  -14.35351 -14.35338 -14.32520 -14.32519  -1.02345
 Alpha  occ. eigenvalues --   -0.91459  -0.80747  -0.68487  -0.54199  -0.51431
 Alpha  occ. eigenvalues --   -0.49342  -0.47513  -0.47009  -0.28069  -0.27783
 Alpha  occ. eigenvalues --   -0.26618  -0.25147
 Alpha virt. eigenvalues --    0.01157   0.02841   0.04415   0.04711   0.07899
 Alpha virt. eigenvalues --    0.08576   0.11197   0.11516   0.12182   0.13801
 Alpha virt. eigenvalues --    0.14108   0.14973   0.16183   0.18476   0.18509

 Mulliken charges:
               1
     1  N   -0.584770
     2  H    0.197148
     3  H    0.200696
     4  N    0.027089
     5  H    0.159837
     6  N    0.027090
     7  H    0.159836
     8  N   -0.584771
     9  H    0.197149
    10  H    0.200696
 Sum of Mulliken charges =  -0.00000

 Dipole moment (field-independent basis, Debye):
    X=              0.0000    Y=              1.4267    Z=              0.0000  Tot=              1.4267
 Quadrupole moment (field-independent basis, Debye-Ang):
   XX=            -20.5356   YY=            -28.0235   ZZ=            -24.4621
   XY=              0.0000   XZ=             -3.0234   YZ=              0.0000

  Exact polarizability:  48.815  -0.000  40.074  -1.182  -0.000  36.593
 Approx polarizability:  60.939  -0.000  54.442  -1.247  -0.000  51.837

                      1                      2                      3
                      A                      A                      A
 Frequencies --    230.0651               299.4340               340.1822
 Red. masses --      3.0504                 1.0550                 1.4833
 Frc consts  --      0.0951                 0.0557                 0.1011
 IR Inten    --      0.3028                71.9435                38.4430

                      4                      5                      6
                      A                      A                      A
 Frequencies --    458.4829               618.6826               793.1173
 Red. masses --      1.6299                 2.5539                 3.0611
 Frc consts  --      0.2019                 0.5760                 1.1345
 IR Inten    --      3.7338                31.4100                 6.0250

                      7                      8                      9
                      A                      A                      A
 Frequencies --    829.8935               866.5195               976.0764
 Red. masses --      2.8792                 2.1175                 1.2268
 Frc consts  --      1.1683                 0.9368                 0.6886
 IR Inten    --     58.7753               109.0128               107.0145

                     10                     11                     12
                      A                      A                      A
 Frequencies --   1048.6908              1083.9982              1219.3302
 Red. masses --      1.8111                 1.8915                 1.9526
 Frc consts  --      1.1735                 1.3095                 1.7105
 IR Inten    --     50.2030                 6.1043                22.7870

                     13                     14                     15
                      A                      A                      A
 Frequencies --   1297.4285              1301.1276              1453.7081
 Red. masses --      1.2223                 1.2613                 1.1086
 Frc consts  --      1.2123                 1.2580                 1.3803
 IR Inten    --      3.7816                 8.0542                 0.8856

                     16                     17                     18
                      A                      A                      A
 Frequencies --   1564.3627              1639.8395              1655.5762
 Red. masses --      1.0756                 1.0828                 1.0866
 Frc consts  --      1.5509                 1.7155                 1.7547
 IR Inten    --      1.8812                28.0937                 9.3096

                     19                     20                     21
                      A                      A                      A
 Frequencies --   3436.4415              3439.1401              3450.9627
 Red. masses --      1.0524                 1.0584                 1.0650
 Frc consts  --      7.3224                 7.3757                 7.4727
 IR Inten    --      3.4478                 4.5028                 0.0015

                     22                     23                     24
                      A                      A                      A
 Frequencies --   3474.4783              3556.7439              3557.0280
 Red. masses --      1.0754                 1.0916                 1.0915
 Frc consts  --      7.6488                 8.1365                 8.1370
 IR Inten    --      2.3771                 1.8589                10.4055

 - Thermochemistry -
 -------------------
 Temperature   298.150 Kelvin.  Pressure   1.00000 Atm.
 Atom     1 has atomic number  7 and mass  14.00307

 Molecular mass:    62.05925 amu.
 Principal axes and moments of inertia in atomic units:
                           1         2         3
     Eigenvalues --   109.64541 305.18649 371.89299
           X            0.99980   0.00000  -0.01990
           Y           -0.00000   1.00000   0.00000
           Z            0.01990  -0.00000   0.99980
 This molecule is an asymmetric top.
 Rotational symmetry number  1.
 Rotational temperatures (Kelvin)      0.78995     0.28381     0.23290
 Rotational constants (GHZ):          16.45980     5.91357     4.85285
 Zero-point vibrational energy     230827.3 (Joules/Mol)
                                   55.16905 (Kcal/Mol)
 Warning -- explicit consideration of   5 degrees of freedom as
           vibrations may cause significant error
 Vibrational temperatures:    331.01   430.82   489.45   659.65   890.15
          (Kelvin)           1141.12  1194.03  1246.73  1404.36  1508.83
                             1559.63  1754.34  1866.71  1872.03  2091.56
                             2250.77  2359.36  2382.00  4944.27  4948.16
                             4965.17  4999.00  5117.36  5117.77

 Zero-point correction=                           0.087917 (Hartree/Particle)
 Thermal correction to Energy=                    0.092827
 Thermal correction to Enthalpy=                  0.093771
 Thermal correction to Gibbs Free Energy=         0.061005
 Sum of electronic and zero-point Energies=           -222.521904
 Sum of electronic and thermal Energies=              -222.516994
 Sum of electronic and thermal Enthalpies=            -222.516050
 Sum of electronic and thermal Free Energies=         -222.548816

                     E (Thermal)             CV                S
                      KCal/Mol        Cal/Mol-Kelvin    Cal/Mol-Kelvin
 Total                   58.250             16.924             68.962
 Electronic               0.000              0.000              0.000
 Translational            0.889              2.981             38.296
 Rotational               0.889              2.981             24.035
 Vibrational             56.472             10.963              6.631
 Vibration     1          0.652              1.795              1.878
 Vibration     2          0.692              1.675              1.420
 Vibration     3          0.720              1.595              1.211
 Vibration     4          0.817              1.342              0.771
 Vibration     5          0.979              0.992              0.419

 Normal termination of Gaussian 16 at Sat Jun  1 20:46:52 2019.
