 Gaussian 03, Revision D.01,
 Gaussian 03:  AM64L-G03RevD.01 13-Oct-2005

 ---------------------------------------------------------------
 # opt=(calcfc,modredundant) freq ub3lyp/6-31+g(d,p) scfcyc=9000
 ---------------------------------------------------------------

 -------------------
 Title Card Required
 -------------------
 Symbolic Z-matrix:
 Charge =  0 Multiplicity = 2

 SCF Done:  E(UB+HF-LYP) =  -79.1700865801     A.U. after   12 cycles
 SCF Done:  E(UB+HF-LYP) =  -79.1701039151     A.U. after    9 cycles
 Optimization completed.
    -- Stationary point found.
 SCF Done:  E(UB+HF-LYP) =  -79.1699274560     A.U. after   13 cycles
 SCF Done:  E(UB+HF-LYP) =  -79.1700979565     A.U. after    9 cycles
 SCF Done:  E(UB+HF-LYP) =  -79.1700986867     A.U. after    8 cycles
 Optimization completed.
 SCF Done:  E(UB+HF-LYP) =  -79.1699063086     A.U. after    9 cycles
 SCF Done:  E(UB+HF-LYP) =  -79.1700791797     A.U. after   10 cycles
 SCF Done:  E(UB+HF-LYP) =  -79.1700802875     A.U. after    8 cycles
 SCF Done:  E(UB+HF-LYP) =  -79.1698727341     A.U. after    9 cycles
 SCF Done:  E(UB+HF-LYP) =  -79.1700488865     A.U. after   10 cycles
 SCF Done:  E(UB+HF-LYP) =  -79.1699142993     A.U. after   10 cycles
 SCF Done:  E(UB+HF-LYP) =  -79.1700821079     A.U. after   10 cycles
 SCF Done:  E(UB+HF-LYP) =  -79.1700824974     A.U. after    7 cycles
 SCF Done:  E(UB+HF-LYP) =  -79.1699300473     A.U. after   10 cycles
 SCF Done:  E(UB+HF-LYP) =  -79.1700975166     A.U. after   10 cycles
 SCF Done:  E(UB+HF-LYP) =  -79.1700979817     A.U. after    8 cycles
 SCF Done:  E(UB+HF-LYP) =  -79.1699352839     A.U. after    9 cycles
 SCF Done:  E(UB+HF-LYP) =  -79.1701032712     A.U. after   10 cycles
 SCF Done:  E(UB+HF-LYP) =  -79.1701039141     A.U. after    8 cycles
    -- Stationary point found.

 1\1\GINC-NODE34\Scan\UB3LYP\6-31+G(d,p)\C2H5(2)\CFGOLD\09-Mar-2010\0\\
 # opt=(calcfc,modredundant) freq ub3lyp/6-31+g(d,p) scfcyc=9000\\Title
  Card Required\\0,2\C,-0.0287593571,-0.0646326655,-0.0002804654\C,-0.0
 065073507,-0.0198038191,1.4891489407\H,-0.6102390262,0.6513672717,-0.5
 72158726\H,0.6349707616,-0.7249741919,-0.5491703028\H,0.2212625677,-1.
 000419111,1.9229488295\H,0.7629858895,0.6752194306,1.8688052556\H,-0.9
 630258541,0.3223362634,1.900828209\\Version=AM64L-G03RevD.01\State=2-A
 \HF=-79.1701039,-79.1700987,-79.1700803,-79.1700502,-79.1700183,-79.17

 Normal termination of Gaussian 03 at Tue Mar  9 14:13:53 2010.

 ---------------------------------------------------------------------
 #N Geom=AllCheck Guess=Read SCRF=Check GenChk UB3LYP/6-31+G(d,p) Freq
 ---------------------------------------------------------------------

 Title Card Required
 -------------------
 Redundant internal coordinates taken from checkpoint file:
 ethyl_scan_1.chk
 Charge =  0 Multiplicity = 2

                         Standard orientation:
 ---------------------------------------------------------------------
 Center     Atomic     Atomic              Coordinates (Angstroms)
 Number     Number      Type              X           Y           Z
 ---------------------------------------------------------------------
    1          6             0        0.795246   -0.000004   -0.018730
    2          6             0       -0.694926    0.000069   -0.001617
    3          1             0        1.354720    0.927994    0.041503
    4          1             0        1.354463   -0.928183    0.041515
    5          1             0       -1.108164   -0.885167   -0.498868
    6          1             0       -1.094972   -0.005429    1.027581
    7          1             0       -1.107970    0.890396   -0.489652
 ---------------------------------------------------------------------

 SCF Done:  E(UB+HF-LYP) =  -79.1701039141     A.U. after    1 cycles

 The electronic state is 2-A.
 Alpha  occ. eigenvalues --  -10.19748 -10.18775  -0.75937  -0.61218  -0.45345
 Alpha  occ. eigenvalues --   -0.41618  -0.39511  -0.36104  -0.20531
 Alpha virt. eigenvalues --    0.01898   0.03015   0.05117   0.05877   0.08267
 Alpha virt. eigenvalues --    0.08718   0.09838   0.14867   0.17708   0.17784
 Alpha virt. eigenvalues --    0.22540   0.27181   0.27207   0.30753   0.60926

  Beta  occ. eigenvalues --  -10.18858 -10.18397  -0.74286  -0.58834  -0.44705
  Beta  occ. eigenvalues --   -0.40144  -0.38714  -0.35656
  Beta virt. eigenvalues --   -0.05727   0.02015   0.03252   0.05127   0.06223
  Beta virt. eigenvalues --    0.08237   0.08703   0.11296   0.15100   0.17886
  Beta virt. eigenvalues --    0.18931   0.24075   0.27639   0.28072   0.31134

 Mulliken atomic charges:
              1
     1  C   -0.220513
     2  C   -0.526945
     3  H    0.140334
     4  H    0.140269
     5  H    0.153978
     6  H    0.158987
     7  H    0.153889
 Sum of Mulliken charges=   0.00000

 Dipole moment (field-independent basis, Debye):
    X=    -0.3204    Y=    -0.0003    Z=     0.1477  Tot=     0.3528
 Quadrupole moment (field-independent basis, Debye-Ang):
   XX=   -14.6037   YY=   -13.7903   ZZ=   -15.6450
   XY=     0.0005   XZ=     0.1696   YZ=     0.0001

  Exact polarizability:  28.291   0.007  23.154  -0.552   0.000  22.744
 Approx polarizability:  32.446   0.010  29.286  -0.740   0.000  27.631

                     1                      2                      3
                     A                      A                      A
 Frequencies --   103.2058               484.5100               813.3152
 Red. masses --     1.0081                 1.2169                 1.0503
 Frc consts  --     0.0063                 0.1683                 0.4093
 IR Inten    --     0.0146                73.5969                 2.5804

                     4                      5                      6
                     A                      A                      A
 Frequencies --   978.6435              1065.5165              1192.7042
 Red. masses --     1.3259                 3.3002                 1.4716
 Frc consts  --     0.7482                 2.2076                 1.2334
 IR Inten    --     0.8424                 0.1115                 2.1191

                     7                      8                      9
                     A                      A                      A
 Frequencies --  1403.9032              1471.1185              1485.8584
 Red. masses --     1.1882                 1.1001                 1.0352
 Frc consts  --     1.3798                 1.4027                 1.3466
 IR Inten    --     1.6620                 3.5531                 6.4509

                    10                     11                     12
                     A                      A                      A
 Frequencies --  1488.2547              2960.8049              3051.1254
 Red. masses --     1.1341                 1.0596                 1.0705
 Frc consts  --     1.4799                 5.4729                 5.8714
 IR Inten    --     3.4465                28.3410                25.5433

                    13                     14                     15
                     A                      A                      A
 Frequencies --  3097.3023              3157.7737              3259.2292
 Red. masses --     1.1025                 1.0510                 1.1186
 Frc consts  --     6.2315                 6.1747                 7.0006
 IR Inten    --    23.4177                16.4110                16.2010

 - Thermochemistry -
 -------------------
 Temperature   298.150 Kelvin.  Pressure   1.00000 Atm.
 Atom  1 has atomic number  6 and mass  12.00000

 Molecular mass:    29.03913 amu.
 Principal axes and moments of inertia in atomic units:
                           1         2         3
     EIGENVALUES --    17.45674  79.69675  85.98664
           X            0.99999   0.00002   0.00414
           Y           -0.00002   1.00000   0.00000
           Z           -0.00414   0.00000   0.99999
 This molecule is an asymmetric top.
 Rotational symmetry number  1.
 Rotational temperatures (Kelvin)      4.96163     1.08679     1.00729
 Rotational constants (GHZ):         103.38365    22.64510    20.98862
 Zero-point vibrational energy     155593.9 (Joules/Mol)
                                   37.18783 (Kcal/Mol)
 Warning -- explicit consideration of   2 degrees of freedom as
           vibrations may cause significant error
 Vibrational temperatures:    148.49   697.10  1170.18  1408.05  1533.04
          (Kelvin)           1716.03  2019.90  2116.61  2137.82  2141.26
                             4259.93  4389.88  4456.32  4543.33  4689.30

 Zero-point correction=                           0.059263 (Hartree/Particle)
 Thermal correction to Energy=                    0.063243
 Thermal correction to Enthalpy=                  0.064187
 Thermal correction to Gibbs Free Energy=         0.035019
 Sum of electronic and zero-point Energies=            -79.110841
 Sum of electronic and thermal Energies=               -79.106861
 Sum of electronic and thermal Enthalpies=             -79.105917
 Sum of electronic and thermal Free Energies=          -79.135085

                     E (Thermal)             CV                S
                      KCal/Mol        Cal/Mol-Kelvin    Cal/Mol-Kelvin
 Total                   39.686             11.088             61.390
 Electronic               0.000              0.000              1.377
 Translational            0.889              2.981             36.032
 Rotational               0.889              2.981             19.420
 Vibrational             37.908              5.127              4.560
 Vibration  1             0.605              1.947              3.393
 Vibration  2             0.841              1.284              0.698

 Optimization completed.
    -- Stationary point found.

 1\1\GINC-NODE34\Scan\UB3LYP\6-31+G(d,p)\C2H5(2)\CFGOLD\09-Mar-2010\0\\
 #N Geom=AllCheck Guess=Read SCRF=Check GenChk UB3LYP/6-31+G(d,p) Freq\
 \Title Card Required\\0,2\C,-0.0287593571,-0.0646326655,-0.0002804654\
 C,-0.0065073507,-0.0198038191,1.4891489407\H,-0.6102390262,0.651367271
 7,-0.572158726\H,0.6349707616,-0.7249741919,-0.5491703028\H,0.22126256
 77,-1.000419111,1.9229488295\H,0.7629858895,0.6752194306,1.8688052556\
 H,-0.9630258541,0.3223362634,1.900828209\\Version=AM64L-G03RevD.01\Sta
 te=2-A\HF=-79.1701039,-0.0001933,0.0000113,-0.0000085,0.0003085,0.0000

 Normal termination of Gaussian 03 at Tue Mar  9 14:14:31 2010.
