 Gaussian 03, Revision D.01,
 Gaussian 03:  AM64L-G03RevD.01 13-Oct-2005

 ---------------------------------------------------------------
 # opt=(calcfc,modredundant) freq ub3lyp/6-31+g(d,p) scfcyc=9000
 ---------------------------------------------------------------

 -------------------
 Title Card Required
 -------------------
 Symbolic Z-matrix:
 Charge =  0 Multiplicity = 2

 SCF Done:  E(UB+HF-LYP) =  -79.1700865801     A.U. after   12 cycles
 SCF Done:  E(UB+HF-LYP) =  -79.1701039151     A.U. after    9 cycles
 Optimization completed.
    -- Stationary point found.
 SCF Done:  E(UB+HF-LYP) =  -79.1693927902     A.U. after   13 cycles
 SCF Done:  E(UB+HF-LYP) =  -79.1700621941     A.U. after   10 cycles
 SCF Done:  E(UB+HF-LYP) =  -79.1700799281     A.U. after    9 cycles
 SCF Done:  E(UB+HF-LYP) =  -79.1700803003     A.U. after    8 cycles
 Optimization completed.
 SCF Done:  E(UB+HF-LYP) =  -79.1692980848     A.U. after   10 cycles
 SCF Done:  E(UB+HF-LYP) =  -79.1699856589     A.U. after   10 cycles
 SCF Done:  E(UB+HF-LYP) =  -79.1700166313     A.U. after    9 cycles
 SCF Done:  E(UB+HF-LYP) =  -79.1700183005     A.U. after    9 cycles
 SCF Done:  E(UB+HF-LYP) =  -79.1700286100     A.U. after   10 cycles
 SCF Done:  E(UB+HF-LYP) =  -79.1700367592     A.U. after    9 cycles
 SCF Done:  E(UB+HF-LYP) =  -79.1694091438     A.U. after   10 cycles
 SCF Done:  E(UB+HF-LYP) =  -79.1700740025     A.U. after   10 cycles
 SCF Done:  E(UB+HF-LYP) =  -79.1700824445     A.U. after    9 cycles
 SCF Done:  E(UB+HF-LYP) =  -79.1694302251     A.U. after   10 cycles
 SCF Done:  E(UB+HF-LYP) =  -79.1700926826     A.U. after   10 cycles
 SCF Done:  E(UB+HF-LYP) =  -79.1701038206     A.U. after    9 cycles
 SCF Done:  E(UB+HF-LYP) =  -79.1701039140     A.U. after    7 cycles
    -- Stationary point found.

 1\1\GINC-NODE31\Scan\UB3LYP\6-31+G(d,p)\C2H5(2)\CFGOLD\19-Jan-2010\0\\
 # opt=(calcfc,modredundant) freq ub3lyp/6-31+g(d,p) scfcyc=9000\\Title
  Card Required\\0,2\C,-0.0309966032,-0.0662539707,-0.0001114723\C,-0.0
 048244324,-0.0185552642,1.4891568074\H,-0.6143626415,0.648300878,-0.57
 18844796\H,0.6314189586,-0.7275372335,-0.5494562804\H,0.2246398405,-0.
 9982460206,1.9241507156\H,0.7652706542,0.6775858025,1.8655283771\H,-0.
 9604581464,0.3237989845,1.9027380727\\Version=AM64L-G03RevD.01\State=2
 -A\HF=-79.1701039,-79.1700803,-79.1700183,-79.1700141,-79.1700757,-79.

 Normal termination of Gaussian 03 at Tue Jan 19 22:12:49 2010.

 ---------------------------------------------------------------------
 #N Geom=AllCheck Guess=Read SCRF=Check GenChk UB3LYP/6-31+G(d,p) Freq
 ---------------------------------------------------------------------

 Title Card Required
 -------------------
 Redundant internal coordinates taken from checkpoint file:
 ethyl_scan_1.chk
 Charge =  0 Multiplicity = 2

                         Standard orientation:
 ---------------------------------------------------------------------
 Center     Atomic     Atomic              Coordinates (Angstroms)
 Number     Number      Type              X           Y           Z
 ---------------------------------------------------------------------
    1          6             0        0.795242    0.000004   -0.018675
    2          6             0       -0.694922    0.000074   -0.001616
    3          1             0        1.354777    0.927979    0.041423
    4          1             0        1.354433   -0.928202    0.041410
    5          1             0       -1.108059   -0.885274   -0.498752
    6          1             0       -1.095095   -0.005265    1.027533
    7          1             0       -1.107976    0.890294   -0.489866
 ---------------------------------------------------------------------

 SCF Done:  E(UB+HF-LYP) =  -79.1701039140     A.U. after    1 cycles

 The electronic state is 2-A.
 Alpha  occ. eigenvalues --  -10.19748 -10.18775  -0.75937  -0.61218  -0.45345
 Alpha  occ. eigenvalues --   -0.41618  -0.39512  -0.36103  -0.20530
 Alpha virt. eigenvalues --    0.01899   0.03015   0.05117   0.05877   0.08267
 Alpha virt. eigenvalues --    0.08718   0.09838   0.14867   0.17708   0.17783
 Alpha virt. eigenvalues --    0.22541   0.27182   0.27207   0.30753   0.60926

  Beta  occ. eigenvalues --  -10.18858 -10.18397  -0.74286  -0.58834  -0.44705
  Beta  occ. eigenvalues --   -0.40144  -0.38714  -0.35656
  Beta virt. eigenvalues --   -0.05727   0.02015   0.03252   0.05127   0.06223
  Beta virt. eigenvalues --    0.08237   0.08703   0.11296   0.15100   0.17885
  Beta virt. eigenvalues --    0.18931   0.24076   0.27640   0.28072   0.31134

 Mulliken atomic charges:
              1
     1  C   -0.220516
     2  C   -0.526945
     3  H    0.140337
     4  H    0.140271
     5  H    0.153974
     6  H    0.158989
     7  H    0.153889
 Sum of Mulliken charges=   0.00000

 Dipole moment (field-independent basis, Debye):
    X=    -0.3204    Y=    -0.0004    Z=     0.1474  Tot=     0.3527
 Quadrupole moment (field-independent basis, Debye-Ang):
   XX=   -14.6036   YY=   -13.7903   ZZ=   -15.6450
   XY=     0.0005   XZ=     0.1691   YZ=     0.0001

  Exact polarizability:  28.291   0.007  23.154  -0.552   0.000  22.744
 Approx polarizability:  32.446   0.010  29.286  -0.740   0.000  27.631

                     1                      2                      3
                     A                      A                      A
 Frequencies --   103.1628               484.4690               813.3490
 Red. masses --     1.0081                 1.2170                 1.0503
 Frc consts  --     0.0063                 0.1683                 0.4094
 IR Inten    --     0.0142                73.6074                 2.5808

                     4                      5                      6
                     A                      A                      A
 Frequencies --   978.6404              1065.5386              1192.7004
 Red. masses --     1.3259                 3.3002                 1.4716
 Frc consts  --     0.7482                 2.2076                 1.2334
 IR Inten    --     0.8421                 0.1115                 2.1197

                     7                      8                      9
                     A                      A                      A
 Frequencies --  1403.9177              1471.1288              1485.8665
 Red. masses --     1.1882                 1.1000                 1.0352
 Frc consts  --     1.3798                 1.4026                 1.3466
 IR Inten    --     1.6616                 3.5535                 6.4516

                    10                     11                     12
                     A                      A                      A
 Frequencies --  1488.2607              2960.8134              3051.0742
 Red. masses --     1.1341                 1.0596                 1.0705
 Frc consts  --     1.4801                 5.4729                 5.8713
 IR Inten    --     3.4442                28.3424                25.5458

                    13                     14                     15
                     A                      A                      A
 Frequencies --  3097.2440              3157.7540              3259.2051
 Red. masses --     1.1025                 1.0510                 1.1186
 Frc consts  --     6.2312                 6.1747                 7.0005
 IR Inten    --    23.4207                16.4100                16.1997

 - Thermochemistry -
 -------------------
 Temperature   298.150 Kelvin.  Pressure   1.00000 Atm.
 Atom  1 has atomic number  6 and mass  12.00000

 Molecular mass:    29.03913 amu.
 Principal axes and moments of inertia in atomic units:
                           1         2         3
     EIGENVALUES --    17.45663  79.69654  85.98662
           X            0.99999   0.00002   0.00413
           Y           -0.00002   1.00000   0.00000
           Z           -0.00413   0.00000   0.99999
 This molecule is an asymmetric top.
 Rotational symmetry number  1.
 Rotational temperatures (Kelvin)      4.96166     1.08680     1.00729
 Rotational constants (GHZ):         103.38428    22.64516    20.98863
 Zero-point vibrational energy     155593.0 (Joules/Mol)
                                   37.18763 (Kcal/Mol)
 Warning -- explicit consideration of   2 degrees of freedom as
           vibrations may cause significant error
 Vibrational temperatures:    148.43   697.04  1170.23  1408.04  1533.07
          (Kelvin)           1716.03  2019.92  2116.62  2137.83  2141.27
                             4259.94  4389.81  4456.24  4543.30  4689.26

 Zero-point correction=                           0.059262 (Hartree/Particle)
 Thermal correction to Energy=                    0.063243
 Thermal correction to Enthalpy=                  0.064187
 Thermal correction to Gibbs Free Energy=         0.035018
 Sum of electronic and zero-point Energies=            -79.110842
 Sum of electronic and thermal Energies=               -79.106861
 Sum of electronic and thermal Enthalpies=             -79.105917
 Sum of electronic and thermal Free Energies=          -79.135085

                     E (Thermal)             CV                S
                      KCal/Mol        Cal/Mol-Kelvin    Cal/Mol-Kelvin
 Total                   39.686             11.088             61.391
 Electronic               0.000              0.000              1.377
 Translational            0.889              2.981             36.032
 Rotational               0.889              2.981             19.420
 Vibrational             37.908              5.127              4.561
 Vibration  1             0.605              1.947              3.394
 Vibration  2             0.841              1.284              0.698

 Optimization completed.
    -- Stationary point found.

 1\1\GINC-NODE31\Scan\UB3LYP\6-31+G(d,p)\C2H5(2)\CFGOLD\19-Jan-2010\0\\
 #N Geom=AllCheck Guess=Read SCRF=Check GenChk UB3LYP/6-31+G(d,p) Freq\
 \Title Card Required\\0,2\C,-0.0309966032,-0.0662539707,-0.0001114723\
 C,-0.0048244324,-0.0185552642,1.4891568074\H,-0.6143626415,0.648300878
 ,-0.5718844796\H,0.6314189586,-0.7275372335,-0.5494562804\H,0.22463984
 05,-0.9982460206,1.9241507156\H,0.7652706542,0.6775858025,1.8655283771
 \H,-0.9604581464,0.3237989845,1.9027380727\\Version=AM64L-G03RevD.01\S
 tate=2-A\HF=-79.1701039,0.0001049,-0.0005079,0.0016724,0.0008152,-0.00

 Normal termination of Gaussian 03 at Tue Jan 19 22:13:27 2010.
