 Gaussian 03, Revision B.05,
 Gaussian 03:  x86-Linux-G03RevB.05 24-Oct-2003

 ------------------------------------
 # cbs-qb3 nosym optcyc=100 scf=tight
 ------------------------------------

 -------------
 Ethyl radical
 -------------
 Symbolic Z-matrix:
 Charge =  0 Multiplicity = 2

 SCF Done:  E(UB+HF-LYP) =  -79.1826968253     A.U. after   13 cycles
 SCF Done:  E(UB+HF-LYP) =  -79.1835296906     A.U. after   11 cycles
 SCF Done:  E(UB+HF-LYP) =  -79.1835460676     A.U. after    7 cycles
 SCF Done:  E(UB+HF-LYP) =  -79.1835480475     A.U. after    7 cycles
 Optimization completed.
    -- Stationary point found.
 Normal termination of Gaussian 03 at Fri Feb  9 00:46:24 2007.

 -------------------------------------------------------
 #N Geom=AllCheck Guess=Read SCRF=Check B3LYP/CBSB7 Freq
 -------------------------------------------------------

 Ethyl radical
 -------------
 Redundant internal coordinates taken from checkpoint file:
 test.chk
 Charge =  0 Multiplicity = 2

 SCF Done:  E(UB+HF-LYP) =  -79.1835480475     A.U. after    1 cycles

  Exact polarizability:  23.214  -0.001  19.150   0.451  -0.004  27.375
 Approx polarizability:  29.790  -0.001  24.810   0.707  -0.006  32.367

 ******    1 imaginary frequencies (negative Signs) ******

                     1                      2                      3
                     A                      A                      A
 Frequencies --  -114.6276               466.8124               815.3936
 Red. masses --     1.0187                 1.2132                 1.0520
 Frc consts  --     0.0079                 0.1558                 0.4121
 IR Inten    --     4.5770                52.2363                 2.4340

                     4                      5                      6
                     A                      A                      A
 Frequencies --   974.6715              1061.9710              1190.7087
 Red. masses --     1.3064                 3.3940                 1.4750
 Frc consts  --     0.7312                 2.2552                 1.2321
 IR Inten    --     0.3430                 0.1083                 2.5849

                     7                      8                      9
                     A                      A                      A
 Frequencies --  1402.0174              1466.9885              1472.4538
 Red. masses --     1.1879                 1.1350                 1.0473
 Frc consts  --     1.3757                 1.4392                 1.3379
 IR Inten    --     2.2695                 0.8958                 6.4433

                    10                     11                     12
                     A                      A                      A
 Frequencies --  1490.9692              2972.3271              2994.8653
 Red. masses --     1.0795                 1.0416                 1.0968
 Frc consts  --     1.4138                 5.4219                 5.7962
 IR Inten    --     4.4790                27.0761                31.9023

                    13                     14                     15
                     A                      A                      A
 Frequencies --  3089.9414              3140.9885              3241.9470
 Red. masses --     1.0936                 1.0510                 1.1185
 Frc consts  --     6.1519                 6.1092                 6.9265
 IR Inten    --    24.8649                16.8285                17.7756

 - Thermochemistry -
 -------------------
 Temperature   298.150 Kelvin.  Pressure   1.00000 Atm.
 Atom  1 has atomic number  6 and mass  12.00000

 Molecular mass:    29.03913 amu.
 Principal axes and moments of inertia in atomic units:
                           1         2         3
     EIGENVALUES --    17.36547  79.45735  85.77454
           X            0.00643   0.99998   0.00016
           Y           -0.00023  -0.00016   1.00000
           Z            0.99998  -0.00643   0.00023
 This molecule is an asymmetric top.
 Rotational symmetry number  1.
 Rotational temperatures (Kelvin)      4.98770     1.09007     1.00978
 Rotational constants (GHZ):         103.92699    22.71333    21.04052
    1 imaginary frequencies ignored.
 Zero-point vibrational energy     154210.9 (Joules/Mol)
                                   36.85730 (Kcal/Mol)
 Warning -- explicit consideration of   1 degrees of freedom as
           vibrations may cause significant error
 Vibrational temperatures:    671.64  1173.17  1402.33  1527.94  1713.16
          (Kelvin)           2017.19  2110.67  2118.53  2145.17  4276.51
                             4308.94  4445.73  4519.18  4664.43

 Zero-point correction=                           0.058736 (Hartree/Particle)
 Thermal correction to Energy=                    0.062003
 Thermal correction to Enthalpy=                  0.062947
 Thermal correction to Gibbs Free Energy=         0.035372
 Sum of electronic and zero-point Energies=            -79.124812
 Sum of electronic and thermal Energies=               -79.121545
 Sum of electronic and thermal Enthalpies=             -79.120601
 Sum of electronic and thermal Free Energies=          -79.148176

                     E (Thermal)             CV                S
                      KCal/Mol        Cal/Mol-Kelvin    Cal/Mol-Kelvin
 Total                   38.907              9.192             58.037
 Electronic               0.000              0.000              1.377
 Translational            0.889              2.981             36.032
 Rotational               0.889              2.981             19.410
 Vibrational             37.130              3.230              1.218
 Vibration  1             0.824              1.324              0.747

 Normal termination of Gaussian 03 at Fri Feb  9 00:50:29 2007.

 ---------------------------------------------------------
 #N Geom=AllCheck Guess=Read SCRF=Check CCSD(T)/6-31+G(d')
 ---------------------------------------------------------

 Ethyl radical
 -------------
 Redundant internal coordinates taken from checkpoint file:
 test.chk
 Charge =  0 Multiplicity = 2

 SCF Done:  E(UHF) =  -78.5980075659     A.U. after   14 cycles
 CCSD(T)= -0.78882700171D+02
 P4SDQ=-78.8747198\CCSD=-78.8762496\CCSD(T)=-78.8827002\S2=0.763265\S2-
 Normal termination of Gaussian 03 at Fri Feb  9 00:52:08 2007.

 ---------------------------------------------------
 #N Geom=AllCheck Guess=Read SCRF=Check MP4SDQ/CBSB4
 ---------------------------------------------------

 Ethyl radical
 -------------
 Redundant internal coordinates taken from checkpoint file:
 test.chk
 Charge =  0 Multiplicity = 2

 SCF Done:  E(UHF) =  -78.6052581397     A.U. after   12 cycles
 Normal termination of Gaussian 03 at Fri Feb  9 00:52:34 2007.

 ----------------------------------------------------------------------
 #N Geom=AllCheck Guess=Read SCRF=Check MP2/CBSB3 CBSExtrap=(NMin=10,Mi
 nPop)
 ----------------------------------------------------------------------

 Ethyl radical
 -------------
 Redundant internal coordinates taken from checkpoint file:
 test.chk
 Charge =  0 Multiplicity = 2

                          Input orientation:
 ---------------------------------------------------------------------
 Center     Atomic     Atomic              Coordinates (Angstroms)
 Number     Number      Type              X           Y           Z
 ---------------------------------------------------------------------
    1          6             0       -0.003909    0.000358   -0.023998
    2          6             0        0.002312   -0.000059    1.463756
    3          1             0        0.926594   -0.000046   -0.578761
    4          1             0       -0.926814    0.000223   -0.588830
    5          1             0       -1.008172    0.002219    1.877869
    6          1             0        0.525432   -0.877515    1.870687
    7          1             0        0.529726    0.874568    1.871114
 ---------------------------------------------------------------------

 SCF Done:  E(UHF) =  -78.6253275543     A.U. after   11 cycles
 E2 =    -0.3227160112D+00 EUMP2 =    -0.78948043565459D+02
 E2(CBS)=      -0.355304 CBS-Int=       0.011646 OIii=       3.132005

 Alpha  occ. eigenvalues --  -11.22783 -11.21702  -1.02921  -0.83973  -0.61748
 Alpha  occ. eigenvalues --   -0.57470  -0.54361  -0.50404  -0.34812
 Alpha virt. eigenvalues --    0.04489   0.06089   0.06527   0.07549   0.09357
 Alpha virt. eigenvalues --    0.14248   0.14795   0.15256   0.16713   0.17867
 Alpha virt. eigenvalues --    0.19812   0.20707   0.21176   0.27159   0.29231

  Beta  occ. eigenvalues --  -11.22028 -11.20389  -0.99292  -0.78626  -0.60741
  Beta  occ. eigenvalues --   -0.54323  -0.53111  -0.49847
  Beta virt. eigenvalues --    0.04565   0.06203   0.06564   0.07387   0.09378
  Beta virt. eigenvalues --    0.09725   0.14294   0.15406   0.16584   0.17981
  Beta virt. eigenvalues --    0.19976   0.20877   0.21831   0.22265   0.27996

 Mulliken atomic charges:
              1
     1  C   -0.153899
     2  C   -0.125685
     3  H    0.062213
     4  H    0.066758
     5  H    0.053748
     6  H    0.048415
     7  H    0.048450
 Sum of Mulliken charges=   0.00000

 Dipole moment (field-independent basis, Debye):
    X=     0.0071    Y=    -0.0007    Z=     0.1833  Tot=     0.1835
 Quadrupole moment (field-independent basis, Debye-Ang):
   XX=   -13.6990   YY=   -15.3600   ZZ=   -14.2218
   XY=    -0.0002   XZ=     0.0019   YZ=     0.0004

    1 imaginary frequencies ignored.
 E2(CBS)/CbsB3=-0.3553041\CBS-Int/CbsB3=0.0116457\OIii/CbsB3=3.1320051\
 Normal termination of Gaussian 03 at Fri Feb  9 00:53:54 2007.
