 Gaussian 03, Revision D.01,
 Gaussian 03:  AM64L-G03RevD.01 13-Oct-2005

 ----------------------------------------------------------------------
 #P iop(7/33=1) opt=calcfc freq b3lyp/6-311++g(d,p) scf=tight nosym scf
 cyc=6000
 ----------------------------------------------------------------------

 -------------------
 Title Card Required
 -------------------
 Symbolic Z-matrix:
 Charge =  0 Multiplicity = 2

 SCF Done:  E(UB+HF-LYP) =  -79.1850281042     A.U. after   12 cycles
 SCF Done:  E(UB+HF-LYP) =  -79.1850613239     A.U. after    8 cycles
 Optimization completed.
    -- Stationary point found.
 Normal termination of Gaussian 03 at Wed Mar 24 13:52:41 2010.

 ----------------------------------------------------------------------
 #P Geom=AllCheck Guess=Read SCRF=Check Test GenChk UB3LYP/6-311++G(d,p
 ) Freq
 ----------------------------------------------------------------------

 Title Card Required
 -------------------
 Redundant internal coordinates taken from checkpoint file:
 ethyl.chk
 Charge =  0 Multiplicity = 2

                          Input orientation:
 ---------------------------------------------------------------------
 Center     Atomic     Atomic              Coordinates (Angstroms)
 Number     Number      Type              X           Y           Z
 ---------------------------------------------------------------------
    1          6             0       -0.000090    0.001119   -0.001919
    2          6             0       -0.000124    0.000287    1.485618
    3          1             0        0.928422   -0.003520   -0.559497
    4          1             0       -0.920528   -0.121350   -0.559461
    5          1             0       -0.914816    0.441282    1.893453
    6          1             0        0.061027   -1.021800    1.894854
    7          1             0        0.855170    0.547464    1.893550
 ---------------------------------------------------------------------

 SCF Done:  E(UB+HF-LYP) =  -79.1850613239     A.U. after    1 cycles

 Alpha  occ. eigenvalues --  -10.17767 -10.16884  -0.76077  -0.61289  -0.45568
 Alpha  occ. eigenvalues --   -0.41809  -0.39768  -0.36252  -0.20697
 Alpha virt. eigenvalues --   -0.00413   0.01657   0.02548   0.03413   0.05874
 Alpha virt. eigenvalues --    0.08019   0.09191   0.09450   0.09951   0.12690
 Alpha virt. eigenvalues --    0.12874   0.14702   0.14927   0.16988   0.17250

  Beta  occ. eigenvalues --  -10.16964 -10.16373  -0.74431  -0.58912  -0.44932
  Beta  occ. eigenvalues --   -0.40318  -0.38960  -0.35798
  Beta virt. eigenvalues --   -0.06008  -0.00351   0.01794   0.02525   0.03533
  Beta virt. eigenvalues --    0.05830   0.07987   0.09369   0.09935   0.10996
  Beta virt. eigenvalues --    0.12812   0.13027   0.14767   0.15385   0.17061

 Mulliken atomic charges:
              1
     1  C   -0.199513
     2  C   -0.454687
     3  H    0.119450
     4  H    0.119380
     5  H    0.135669
     6  H    0.144119
     7  H    0.135582
 Sum of Mulliken charges=   0.00000

 Dipole moment (field-independent basis, Debye):
    X=     0.0083    Y=    -0.1355    Z=     0.3090  Tot=     0.3375
 Quadrupole moment (field-independent basis, Debye-Ang):
   XX=   -13.7902   YY=   -15.5758   ZZ=   -14.1023
   XY=     0.1142   XZ=    -0.0050   YZ=     0.0731

  Exact polarizability:  24.529   0.035  24.034   0.045  -0.653  29.491
 Approx polarizability:  31.398   0.095  29.914   0.049  -0.904  34.385

                     1                      2                      3
                     A                      A                      A
 Frequencies --   101.5619               490.8570               813.1637
 Red. masses --     1.0082                 1.2155                 1.0506
 Frc consts  --     0.0061                 0.1725                 0.4093
 IR Inten    --     0.0027                67.9605                 2.3560

                     4                      5                      6
                     A                      A                      A
 Frequencies --   978.2998              1061.8167              1190.2112
 Red. masses --     1.3316                 3.3326                 1.4732
 Frc consts  --     0.7509                 2.2137                 1.2296
 IR Inten    --     0.8114                 0.0844                 2.2112

                     7                      8                      9
                     A                      A                      A
 Frequencies --  1398.9741              1463.9058              1480.6162
 Red. masses --     1.1857                 1.1133                 1.0354
 Frc consts  --     1.3672                 1.4057                 1.3374
 IR Inten    --     2.4558                 2.4587                 6.3075

                    10                     11                     12
                     A                      A                      A
 Frequencies --  1481.4165              2943.8355              3034.7602
 Red. masses --     1.1165                 1.0616                 1.0673
 Frc consts  --     1.4437                 5.4205                 5.7912
 IR Inten    --     4.3270                28.5981                24.7440

                    13                     14                     15
                     A                      A                      A
 Frequencies --  3078.5250              3138.6384              3238.6735
 Red. masses --     1.1021                 1.0508                 1.1186
 Frc consts  --     6.1538                 6.0991                 6.9129
 IR Inten    --    23.1927                15.7537                15.6723

 - Thermochemistry -
 -------------------
 Temperature   298.150 Kelvin.  Pressure   1.00000 Atm.
 Atom  1 has atomic number  6 and mass  12.00000

 Molecular mass:    29.03913 amu.
 Principal axes and moments of inertia in atomic units:
                           1         2         3
     EIGENVALUES --    17.39432  79.40386  85.67886
           X           -0.00048   0.99798  -0.06359
           Y            0.00632   0.06359   0.99796
           Z            0.99998   0.00008  -0.00634
 This molecule is an asymmetric top.
 Rotational symmetry number  1.
 Rotational temperatures (Kelvin)      4.97943     1.09080     1.01091
 Rotational constants (GHZ):         103.75465    22.72863    21.06402
 Zero-point vibrational energy     154888.0 (Joules/Mol)
                                   37.01913 (Kcal/Mol)
 Warning -- explicit consideration of   2 degrees of freedom as
           vibrations may cause significant error
 Vibrational temperatures:    146.12   706.23  1169.96  1407.55  1527.72
          (Kelvin)           1712.45  2012.81  2106.23  2130.27  2131.43
                             4235.52  4366.34  4429.31  4515.80  4659.72

 Zero-point correction=                           0.058994 (Hartree/Particle)
 Thermal correction to Energy=                    0.062974
 Thermal correction to Enthalpy=                  0.063918
 Thermal correction to Gibbs Free Energy=         0.034746
 Sum of electronic and zero-point Energies=            -79.126068
 Sum of electronic and thermal Energies=               -79.122087
 Sum of electronic and thermal Enthalpies=             -79.121143
 Sum of electronic and thermal Free Energies=          -79.150315

                     E (Thermal)             CV                S
                      KCal/Mol        Cal/Mol-Kelvin    Cal/Mol-Kelvin
 Total                   39.517             11.088             61.397
 Electronic               0.000              0.000              1.377
 Translational            0.889              2.981             36.032
 Rotational               0.889              2.981             19.409
 Vibrational             37.739              5.127              4.578
 Vibration  1             0.604              1.948              3.424
 Vibration  2             0.847              1.270              0.681

 Optimization completed.
    -- Stationary point found.
 Normal termination of Gaussian 03 at Wed Mar 24 13:54:15 2010.
