 Gaussian 03, Revision D.01,
 Gaussian 03:  AM64L-G03RevD.01 13-Oct-2005

 -------------------------------------------------
 # cbs-qb3 iop(1/30=1) scf=tight nosym scfcyc=6000
 -------------------------------------------------

 --------
 H + C2H4
 --------
 Symbolic Z-matrix:
 Charge =  0 Multiplicity = 2

 SCF Done:  E(UB+HF-LYP) =  -79.1166134112     A.U. after   16 cycles
 Normal termination of Gaussian 03 at Wed Jan 18 13:28:45 2012.

 ------------------------------------------------------------
 #N Geom=AllCheck Guess=Read SCRF=Check Test B3LYP/CBSB7 Freq
 ------------------------------------------------------------

 H + C2H4
 --------
 Redundant internal coordinates taken from checkpoint file:
 TS_cbsqb3_energy.chk
 Charge =  0 Multiplicity = 2

 SCF Done:  E(UB+HF-LYP) =  -79.1166134112     A.U. after    1 cycles

  Exact polarizability:  30.256  -9.313  38.155   0.000   0.000  21.981
 Approx polarizability:  36.949 -12.346  55.587   0.000   0.000  27.676

 ******    1 imaginary frequencies (negative Signs) ******

                     1                      2                      3
                    A'                     A'                     A"
 Frequencies --  -757.8103               416.9201               419.3996
 Red. masses --     1.1606                 1.1763                 1.0423
 Frc consts  --     0.3927                 0.1205                 0.1080
 IR Inten    --    13.3309                 2.9560                 0.4116

                     4                      5                      6
                    A"                     A'                     A'
 Frequencies --   829.7858               933.7761               992.6339
 Red. masses --     1.0428                 1.3605                 1.1589
 Frc consts  --     0.4230                 0.6989                 0.6728
 IR Inten    --     0.8037                50.6608                42.9372

                     7                      8                      9
                    A"                     A"                     A'
 Frequencies --  1034.5006              1236.5749              1339.7476
 Red. masses --     1.0125                 1.5067                 1.4315
 Frc consts  --     0.6384                 1.3575                 1.5139
 IR Inten    --     0.3092                 0.0039                 0.9478

                    10                     11                     12
                    A'                     A'                     A'
 Frequencies --  1469.7476              1616.5072              3132.7733
 Red. masses --     1.1128                 2.2243                 1.0481
 Frc consts  --     1.4163                 3.4246                 6.0608
 IR Inten    --    10.2838                 2.4056                10.3509

                    13                     14                     15
                    A'                     A"                     A"
 Frequencies --  3141.9567              3207.3919              3234.2090
 Red. masses --     1.0663                 1.1151                 1.1178
 Frc consts  --     6.2022                 6.7586                 6.8889
 IR Inten    --     2.1642                 0.4302                16.7821

 - Thermochemistry -
 -------------------
 Temperature   298.150 Kelvin.  Pressure   1.00000 Atm.
 Atom  1 has atomic number  6 and mass  12.00000

 Molecular mass:    29.03913 amu.
 Principal axes and moments of inertia in atomic units:
                           1         2         3
     EIGENVALUES --    24.23011  79.07659  79.31819
           X           -0.13160   0.00000   0.99130
           Y            0.99130   0.00000   0.13160
           Z            0.00000   1.00000   0.00000
 This molecule is an asymmetric top.
 Rotational symmetry number  1.
 Rotational temperatures (Kelvin)      3.57464     1.09532     1.09198
 Rotational constants (GHZ):          74.48342    22.82270    22.75318
    1 imaginary frequencies ignored.
 Zero-point vibrational energy     137606.0 (Joules/Mol)
                                   32.88862 (Kcal/Mol)
 Warning -- explicit consideration of   2 degrees of freedom as
           vibrations may cause significant error
 Vibrational temperatures:    599.85   603.42  1193.88  1343.49  1428.18
          (Kelvin)           1488.41  1779.15  1927.60  2114.64  2325.79
                             4507.36  4520.57  4614.72  4653.30

 Zero-point correction=                           0.052411 (Hartree/Particle)
 Thermal correction to Energy=                    0.056049
 Thermal correction to Enthalpy=                  0.056993
 Thermal correction to Gibbs Free Energy=         0.028757
 Sum of electronic and zero-point Energies=            -79.064202
 Sum of electronic and thermal Energies=               -79.060565
 Sum of electronic and thermal Enthalpies=             -79.059621
 Sum of electronic and thermal Free Energies=          -79.087857

                     E (Thermal)             CV                S
                      KCal/Mol        Cal/Mol-Kelvin    Cal/Mol-Kelvin
 Total                   35.171             11.053             59.428
 Electronic               0.000              0.000              1.377
 Translational            0.889              2.981             36.032
 Rotational               0.889              2.981             19.658
 Vibrational             33.394              5.091              2.360
 Vibration  1             0.780              1.433              0.902
 Vibration  2             0.782              1.428              0.894

 Normal termination of Gaussian 03 at Wed Jan 18 13:29:24 2012.

 --------------------------------------------------------------
 #N Geom=AllCheck Guess=Read SCRF=Check Test CCSD(T)/6-31+G(d')
 --------------------------------------------------------------

 H + C2H4
 --------
 Redundant internal coordinates taken from checkpoint file:
 TS_cbsqb3_energy.chk
 Charge =  0 Multiplicity = 2

 SCF Done:  E(UHF) =  -78.5268226130     A.U. after   16 cycles
 CCSD(T)= -0.78819453648D+02
 CCSD(T)=-78.8194536\S2=0.955645\S2-1=0.903038\S2A=0.752973\RMSD=6.675e
 Normal termination of Gaussian 03 at Wed Jan 18 13:30:49 2012.

 --------------------------------------------------------
 #N Geom=AllCheck Guess=Read SCRF=Check Test MP4SDQ/CBSB4
 --------------------------------------------------------

 H + C2H4
 --------
 Redundant internal coordinates taken from checkpoint file:
 TS_cbsqb3_energy.chk
 Charge =  0 Multiplicity = 2

 SCF Done:  E(UHF) =  -78.5333233738     A.U. after   13 cycles
 Normal termination of Gaussian 03 at Wed Jan 18 13:31:02 2012.

 ----------------------------------------------------------------------
 #N Geom=AllCheck Guess=Read SCRF=Check Test MP2/CBSB3 CBSExtrap=(NMin=
 10,MinPop)
 ----------------------------------------------------------------------

 H + C2H4
 --------
 Redundant internal coordinates taken from checkpoint file:
 TS_cbsqb3_energy.chk
 Charge =  0 Multiplicity = 2

                          Input orientation:
 ---------------------------------------------------------------------
 Center     Atomic     Atomic              Coordinates (Angstroms)
 Number     Number      Type              X           Y           Z
 ---------------------------------------------------------------------
    1          6             0       -0.104295    0.744624    0.000000
    2          6             0       -0.104295   -0.601018    0.000000
    3          1             0       -0.083668    1.312347    0.923347
    4          1             0       -0.083668    1.312347   -0.923347
    5          1             0       -0.198645   -1.165529   -0.920501
    6          1             0       -0.198645   -1.165529    0.920501
    7          1             0        1.816168   -1.155271    0.000000
 ---------------------------------------------------------------------

 SCF Done:  E(UHF) =  -78.5553315533     A.U. after   13 cycles
 E2 =    -0.3197398426D+00 EUMP2 =    -0.78875071395893D+02
 E2(CBS)=      -0.352218 CBS-Int=       0.011385 OIii=       3.028393

 Alpha  occ. eigenvalues --  -11.23490 -11.23170  -1.04183  -0.80283  -0.64627
 Alpha  occ. eigenvalues --   -0.59369  -0.51246  -0.49182  -0.37021
 Alpha virt. eigenvalues --    0.04855   0.05992   0.06203   0.08304   0.08894
 Alpha virt. eigenvalues --    0.12570   0.13785   0.14812   0.17147   0.19847
 Alpha virt. eigenvalues --    0.20226   0.21597   0.21699   0.23972   0.27741

  Beta  occ. eigenvalues --  -11.24311 -11.22036  -1.03499  -0.79405  -0.64428
  Beta  occ. eigenvalues --   -0.58927  -0.51040  -0.39928
  Beta virt. eigenvalues --    0.04015   0.05886   0.06238   0.07124   0.08306
  Beta virt. eigenvalues --    0.09607   0.13930   0.15068   0.16378   0.17270
  Beta virt. eigenvalues --    0.20098   0.21210   0.21915   0.21962   0.25293

 Mulliken atomic charges:
              1
     1  C   -0.152403
     2  C   -0.146261
     3  H    0.077391
     4  H    0.077391
     5  H    0.092079
     6  H    0.092079
     7  H   -0.040274
 Sum of Mulliken charges=   0.00000

 Dipole moment (field-independent basis, Debye):
    X=    -0.4817    Y=     0.1814    Z=     0.0000  Tot=     0.5147
 Quadrupole moment (field-independent basis, Debye-Ang):
   XX=   -18.0102   YY=   -14.0081   ZZ=   -13.6647
   XY=     0.9243   XZ=     0.0000   YZ=     0.0000

    1 imaginary frequencies ignored.
 Normal termination of Gaussian 03 at Wed Jan 18 13:31:31 2012.
