 Gaussian 03, Revision D.01,
 Gaussian 03:  AM64L-G03RevD.01 13-Oct-2005

 ----------------------------------------------------------------
 # freq b3lyp/6-311g(d,p) iop(7/33=1) scf=tight nosym scfcyc=6000
 ----------------------------------------------------------------

 --------
 H + C2H4
 --------
 Symbolic Z-matrix:
 Charge =  0 Multiplicity = 2

                          Input orientation:
 ---------------------------------------------------------------------
 Center     Atomic     Atomic              Coordinates (Angstroms)
 Number     Number      Type              X           Y           Z
 ---------------------------------------------------------------------
    1          6             0       -0.104295    0.744624    0.000000
    2          6             0       -0.104295   -0.601018    0.000000
    3          1             0       -0.083668    1.312347    0.923347
    4          1             0       -0.083668    1.312347   -0.923347
    5          1             0       -0.198645   -1.165529   -0.920501
    6          1             0       -0.198645   -1.165529    0.920501
    7          1             0        1.816168   -1.155271    0.000000
 ---------------------------------------------------------------------

 SCF Done:  E(UB+HF-LYP) =  -79.1166134112     A.U. after   16 cycles

 Alpha  occ. eigenvalues --  -10.18634 -10.18261  -0.77540  -0.59636  -0.48103
 Alpha  occ. eigenvalues --   -0.43504  -0.36946  -0.33554  -0.23364
 Alpha virt. eigenvalues --   -0.00126   0.06104   0.08089   0.08769   0.15369
 Alpha virt. eigenvalues --    0.26171   0.28768   0.30209   0.30433   0.37600
 Alpha virt. eigenvalues --    0.40995   0.43865   0.54906   0.57630   0.59966

  Beta  occ. eigenvalues --  -10.18808 -10.17752  -0.76978  -0.59154  -0.47936
  Beta  occ. eigenvalues --   -0.43204  -0.36806  -0.29560
  Beta virt. eigenvalues --   -0.08545   0.01427   0.06429   0.08107   0.08852
  Beta virt. eigenvalues --    0.15372   0.28839   0.30279   0.30530   0.31629
  Beta virt. eigenvalues --    0.38102   0.41976   0.45843   0.55148   0.57683

 Mulliken atomic charges:
              1
     1  C   -0.185996
     2  C   -0.259964
     3  H    0.116754
     4  H    0.116754
     5  H    0.135445
     6  H    0.135445
     7  H   -0.058439
 Sum of Mulliken charges=   0.00000

 Dipole moment (field-independent basis, Debye):
    X=    -0.7303    Y=     0.3518    Z=     0.0000  Tot=     0.8106
 Quadrupole moment (field-independent basis, Debye-Ang):
   XX=   -18.0351   YY=   -14.0264   ZZ=   -13.6157
   XY=     1.0974   XZ=     0.0000   YZ=     0.0000

  Exact polarizability:  30.256  -9.313  38.155   0.000   0.000  21.981
 Approx polarizability:  36.949 -12.346  55.587   0.000   0.000  27.676

 ******    1 imaginary frequencies (negative Signs) ******

                     1                      2                      3
                    A'                     A'                     A"
 Frequencies --  -757.8102               416.9201               419.3996
 Red. masses --     1.1606                 1.1763                 1.0423
 Frc consts  --     0.3927                 0.1205                 0.1080
 IR Inten    --    13.3310                 2.9561                 0.4116

                     4                      5                      6
                    A"                     A'                     A'
 Frequencies --   829.7858               933.7761               992.6338
 Red. masses --     1.0428                 1.3605                 1.1589
 Frc consts  --     0.4230                 0.6989                 0.6728
 IR Inten    --     0.8037                50.6608                42.9373

                     7                      8                      9
                    A"                     A"                     A'
 Frequencies --  1034.5006              1236.5749              1339.7476
 Red. masses --     1.0125                 1.5067                 1.4315
 Frc consts  --     0.6384                 1.3575                 1.5139
 IR Inten    --     0.3092                 0.0039                 0.9478

                    10                     11                     12
                    A'                     A'                     A'
 Frequencies --  1469.7477              1616.5072              3132.7733
 Red. masses --     1.1128                 2.2243                 1.0481
 Frc consts  --     1.4163                 3.4246                 6.0608
 IR Inten    --    10.2838                 2.4056                10.3509

                    13                     14                     15
                    A'                     A"                     A"
 Frequencies --  3141.9567              3207.3919              3234.2090
 Red. masses --     1.0663                 1.1151                 1.1178
 Frc consts  --     6.2022                 6.7586                 6.8889
 IR Inten    --     2.1642                 0.4302                16.7821

 - Thermochemistry -
 -------------------
 Temperature   298.150 Kelvin.  Pressure   1.00000 Atm.
 Atom  1 has atomic number  6 and mass  12.00000

 Molecular mass:    29.03913 amu.
 Principal axes and moments of inertia in atomic units:
                           1         2         3
     EIGENVALUES --    24.23011  79.07659  79.31819
           X           -0.13160   0.00000   0.99130
           Y            0.99130   0.00000   0.13160
           Z            0.00000   1.00000   0.00000
 This molecule is an asymmetric top.
 Rotational symmetry number  1.
 Rotational temperatures (Kelvin)      3.57464     1.09532     1.09198
 Rotational constants (GHZ):          74.48342    22.82270    22.75318
    1 imaginary frequencies ignored.
 Zero-point vibrational energy     137606.0 (Joules/Mol)
                                   32.88862 (Kcal/Mol)
 Warning -- explicit consideration of   2 degrees of freedom as
           vibrations may cause significant error
 Vibrational temperatures:    599.85   603.42  1193.88  1343.49  1428.18
          (Kelvin)           1488.41  1779.15  1927.60  2114.64  2325.79
                             4507.36  4520.57  4614.72  4653.30

 Zero-point correction=                           0.052411 (Hartree/Particle)
 Thermal correction to Energy=                    0.056049
 Thermal correction to Enthalpy=                  0.056993
 Thermal correction to Gibbs Free Energy=         0.028757
 Sum of electronic and zero-point Energies=            -79.064202
 Sum of electronic and thermal Energies=               -79.060565
 Sum of electronic and thermal Enthalpies=             -79.059621
 Sum of electronic and thermal Free Energies=          -79.087857

                     E (Thermal)             CV                S
                      KCal/Mol        Cal/Mol-Kelvin    Cal/Mol-Kelvin
 Total                   35.171             11.053             59.428
 Electronic               0.000              0.000              1.377
 Translational            0.889              2.981             36.032
 Rotational               0.889              2.981             19.658
 Vibrational             33.394              5.091              2.360
 Vibration  1             0.780              1.433              0.902
 Vibration  2             0.782              1.428              0.894

 Normal termination of Gaussian 03 at Wed Jan 18 13:32:12 2012.
