 Gaussian 03, Revision D.01,
 Gaussian 03:  AM64L-G03RevD.01 13-Oct-2005

 --------------------------------------------------------------------
 #P iop(7/33=1) opt=calcfc freq b3lyp scf=tight nosym scfcyc=6000 gen
 --------------------------------------------------------------------

 -------------------
 Title Card Required
 -------------------
 Symbolic Z-matrix:
 Charge =  0 Multiplicity = 1

 SCF Done:  E(RB+HF-LYP) =  -78.6210726866     A.U. after    9 cycles
 SCF Done:  E(RB+HF-LYP) =  -78.6210978019     A.U. after    7 cycles
 Optimization completed.
    -- Stationary point found.
 Normal termination of Gaussian 03 at Mon Aug 31 20:19:38 2009.

 ---------------------------------------------------------------------
 #P Geom=AllCheck Guess=Read SCRF=Check Test GenChk RB3LYP/ChkBas Freq
 ---------------------------------------------------------------------

 Title Card Required
 -------------------
 Redundant internal coordinates taken from checkpoint file:
 ethene.chk
 Charge =  0 Multiplicity = 1

                          Input orientation:
 ---------------------------------------------------------------------
 Center     Atomic     Atomic              Coordinates (Angstroms)
 Number     Number      Type              X           Y           Z
 ---------------------------------------------------------------------
    1          6             0       -0.000528    0.000000   -0.000332
    2          1             0       -0.002015    0.000000    1.082073
    3          1             0        0.968814    0.000000   -0.481972
    4          6             0       -1.126154    0.000000   -0.699001
    5          1             0       -1.124670    0.000000   -1.781408
    6          1             0       -2.095499    0.000000   -0.217363
 ---------------------------------------------------------------------

 SCF Done:  E(RB+HF-LYP) =  -78.6210978019     A.U. after    1 cycles

 Alpha  occ. eigenvalues --  -10.17184 -10.17095  -0.76751  -0.58537  -0.47573
 Alpha  occ. eigenvalues --   -0.42832  -0.36083  -0.28244
 Alpha virt. eigenvalues --   -0.01071   0.01996   0.03231   0.04273   0.06573
 Alpha virt. eigenvalues --    0.08043   0.08400   0.12376   0.13473   0.15042
 Alpha virt. eigenvalues --    0.16379   0.19931   0.27309   0.30919   0.39553

 Mulliken atomic charges:
              1
     1  C   -0.229980
     2  H    0.115007
     3  H    0.114973
     4  C   -0.229978
     5  H    0.115006
     6  H    0.114972
 Sum of Mulliken charges=   0.00000

 Dipole moment (field-independent basis, Debye):
    X=     0.0000    Y=     0.0000    Z=     0.0000  Tot=     0.0000
 Quadrupole moment (field-independent basis, Debye-Ang):
   XX=   -12.4311   YY=   -15.7877   ZZ=   -12.4794
   XY=     0.0000   XZ=     0.0486   YZ=     0.0000

  Exact polarizability:  31.629   0.000  20.477   5.519   0.000  26.163
 Approx polarizability:  45.759   0.000  26.544  10.128   0.000  35.728

                     1                      2                      3
                    A"                     A'                     A'
 Frequencies --   836.7625               980.4529               987.0867
 Red. masses --     1.0427                 1.1607                 1.5193
 Frc consts  --     0.4301                 0.6574                 0.8721
 IR Inten    --     0.1819               103.6038                 0.0001

                     4                      5                      6
                    A'                     ?A                     ?A
 Frequencies --  1063.5655              1246.0011              1381.3648
 Red. masses --     1.0078                 1.5258                 1.2301
 Frc consts  --     0.6717                 1.3957                 1.3829
 IR Inten    --     0.0104                 0.0000                 0.0000

                     7                      8                      9
                    A"                     ?A                     A"
 Frequencies --  1479.8768              1689.1286              3129.7403
 Red. masses --     1.1119                 3.1055                 1.0478
 Frc consts  --     1.4347                 5.2204                 6.0472
 IR Inten    --     9.7980                 0.0000                16.2334

                    10                     11                     12
                    ?A                     ?A                     A"
 Frequencies --  3143.1150              3197.7575              3225.7887
 Red. masses --     1.0720                 1.1146                 1.1177
 Frc consts  --     6.2398                 6.7151                 6.8526
 IR Inten    --     0.0000                 0.0000                21.7414

 - Thermochemistry -
 -------------------
 Temperature   298.150 Kelvin.  Pressure   1.00000 Atm.
 Atom  1 has atomic number  6 and mass  12.00000

 Molecular mass:    28.03130 amu.
 Principal axes and moments of inertia in atomic units:
                           1         2         3
     EIGENVALUES --    12.19612  59.45737  71.65349
           X            0.84964  -0.52737   0.00000
           Y            0.00000   0.00000   1.00000
           Z            0.52737   0.84964   0.00000
 This molecule is an asymmetric top.
 Rotational symmetry number  1.
 Rotational temperatures (Kelvin)      7.10175     1.45674     1.20879
 Rotational constants (GHZ):         147.97667    30.35353    25.18707
 Zero-point vibrational energy     133746.3 (Joules/Mol)
                                   31.96614 (Kcal/Mol)
 Vibrational temperatures:   1203.91  1410.65  1420.20  1530.23  1792.72
          (Kelvin)           1987.47  2129.21  2430.28  4502.99  4522.24
                             4600.85  4641.18

 Zero-point correction=                           0.050941 (Hartree/Particle)
 Thermal correction to Energy=                    0.053979
 Thermal correction to Enthalpy=                  0.054923
 Thermal correction to Gibbs Free Energy=         0.028771
 Sum of electronic and zero-point Energies=            -78.570157
 Sum of electronic and thermal Energies=               -78.567119
 Sum of electronic and thermal Enthalpies=             -78.566175
 Sum of electronic and thermal Free Energies=          -78.592327

                     E (Thermal)             CV                S
                      KCal/Mol        Cal/Mol-Kelvin    Cal/Mol-Kelvin
 Total                   33.872              8.065             55.042
 Electronic               0.000              0.000              0.000
 Translational            0.889              2.981             35.927
 Rotational               0.889              2.981             18.592
 Vibrational             32.095              2.104              0.523

 Optimization completed.
    -- Stationary point found.
 Normal termination of Gaussian 03 at Mon Aug 31 20:20:28 2009.
