 Q-Chem 5.2, Q-Chem, Inc., Pleasanton, CA (2019)
 Q-Chem 5.2.0 for Intel X86 EM64T Linux

User input:
--------------------------------------------------------------
$molecule
0 2
C   -4.4820519    1.1865684   -0.0588333
C   -3.1857389    1.9808385   -0.0775153
C   -1.9649855    1.0644888    0.0096518
C   -0.6665538    1.8689498   -0.0135700
C    0.5270134    0.9786297    0.0561460
H   -5.3410501    1.8617052   -0.1239480
H   -4.5741699    0.6075964    0.8655945
H   -4.5298780    0.4936078   -0.9049428
H   -3.1834420    2.6853937    0.7622489
H   -3.1411306    2.5734710   -0.9987207
H   -1.9784407    0.3560457   -0.8284784
H   -2.0174246    0.4703689    0.9309689
H   -0.6391905    2.5672951    0.8305661
H   -0.6084004    2.4681131   -0.9292319
H    0.9416932    0.6956393    1.0166270
H    0.9097155    0.5081175   -0.8421721
$end

$rem
JOBTYPE                   Optimization
METHOD                    wB97M-V
BASIS                     def2-TZVPD
SCF_ALGORITHM             DIIS_GDM
MAX_DIIS_CYCLES           50
THRESH_DIIS_SWITCH        11
MAX_SCF_CYCLES            150
SCF_CONVERGENCE           8
THRESH                    11
$end

--------------------------------------------------------------

             Standard Nuclear Orientation (Angstroms)
    I     Atom           X                Y                Z
 ----------------------------------------------------------------
    1      C       2.4513925948    -0.3262066134    -0.0025433561
    2      C       1.1904588512     0.5232651586     0.0066873410
    3      C      -0.0694994200    -0.3426283637    -0.0096620489
    4      C      -1.3320115892     0.5173176437     0.0036615788
    5      C      -2.5633011909    -0.3229550455     0.0028958581
    6      H       3.3393445958     0.3135414462     0.0112839554
    7      H       2.4968251276    -0.9512681877    -0.9000370739
    8      H       2.4903579980    -0.9802025928     0.8744708806
    9      H       1.1976094200     1.1871646582    -0.8655474560
   10      H       1.1929773322     1.1597584563     0.8992636731
   11      H      -0.0657076056    -1.0109658962     0.8608811524
   12      H      -0.0642615437    -0.9809491902    -0.9024512741
   13      H      -1.3502642902     1.1758967895    -0.8720901048
   14      H      -1.3428808866     1.1606533950     0.8906881639
   15      H      -3.0124888168    -0.6324545754    -0.9335907527
   16      H      -2.9437468059    -0.7339309812     0.9308925988
 ----------------------------------------------------------------

 Final energy is   -197.034513472585
 **  OPTIMIZATION CONVERGED  **
 Total job time:  415.42s(wall), 5402.93s(cpu)
        *  Thank you very much for using Q-Chem.  Have a nice day.  *
