 Gaussian 09, Revision D.01,
 Gaussian 09:  AS64L-G09RevD.01 24-Apr-2013

 ---------------------------------------------------
 #P opt=(calcfc, noeigentest, tight) cbs-qb3 scf=xqc
 ---------------------------------------------------

 ----
 name
 ----
 Symbolic Z-matrix:
 Charge =  0 Multiplicity = 1

 SCF Done:  E(RB3LYP) =  -229.003272663     A.U. after   14 cycles
 SCF Done:  E(RB3LYP) =  -229.004068908     A.U. after   12 cycles
 SCF Done:  E(RB3LYP) =  -229.004089233     A.U. after   11 cycles
 SCF Done:  E(RB3LYP) =  -229.004090287     A.U. after    9 cycles
 SCF Done:  E(RB3LYP) =  -229.004090341     A.U. after    8 cycles
 SCF Done:  E(RB3LYP) =  -229.004090342     A.U. after    5 cycles
 Optimization completed.
    -- Stationary point found.
 Normal termination of Gaussian 09 at Tue Apr 23 16:19:09 2019.

 ---------------------------------------------------------
 #P Geom=AllCheck Guess=TCheck SCRF=Check B3LYP/CBSB7 Freq
 ---------------------------------------------------------

 Structure from the checkpoint file:  "check.chk"
 ----
 name
 ----
 Charge =  0 Multiplicity = 1

 SCF Done:  E(RB3LYP) =  -229.004090342     A.U. after    1 cycles

  Exact polarizability:  51.003   3.647  26.757   0.003  -1.821  19.606
 Approx polarizability:  73.223   8.190  37.112  -1.995  -2.048  27.191

                      1                      2                      3
                      A                      A                      A
 Frequencies --     89.2182               240.6737               346.2363
 Red. masses --      2.9858                 1.1077                 3.0534
 Frc consts  --      0.0140                 0.0378                 0.2157
 IR Inten    --     17.5617               123.7107                 1.6807

                      4                      5                      6
                      A                      A                      A
 Frequencies --    528.0218               709.7652               864.3748
 Red. masses --      3.6459                 1.5452                 1.6586
 Frc consts  --      0.5989                 0.4586                 0.7301
 IR Inten    --      7.4846                 6.8906                40.3188

                      7                      8                      9
                      A                      A                      A
 Frequencies --    873.1135               966.1088               991.3113
 Red. masses --      2.2459                 1.9728                 1.5395
 Frc consts  --      1.0088                 1.0849                 0.8914
 IR Inten    --     33.5982                 9.7004                30.1597

                     10                     11                     12
                      A                      A                      A
 Frequencies --   1182.8113              1310.7406              1373.1988
 Red. masses --      2.8615                 1.1900                 1.1183
 Frc consts  --      2.3587                 1.2045                 1.2424
 IR Inten    --     69.0533                 1.9665                48.9501

                     13                     14                     15
                      A                      A                      A
 Frequencies --   1416.1123              1688.6646              3158.2233
 Red. masses --      1.1812                 4.5949                 1.0569
 Frc consts  --      1.3957                 7.7200                 6.2113
 IR Inten    --      2.4988                84.0841                 0.9560

                     16                     17                     18
                      A                      A                      A
 Frequencies --   3186.1888              3253.1944              3754.0384
 Red. masses --      1.0974                 1.1169                 1.0689
 Frc consts  --      6.5637                 6.9645                 8.8750
 IR Inten    --      4.6831                 4.4176                37.0984

 - Thermochemistry -
 -------------------
 Temperature   298.150 Kelvin.  Pressure   1.00000 Atm.
 Atom     1 has atomic number  8 and mass  15.99491

 Molecular mass:    60.02113 amu.
 Principal axes and moments of inertia in atomic units:
                           1         2         3
     Eigenvalues --    44.67777 392.54113 420.69866
           X            0.99996  -0.00099   0.00864
           Y            0.00184   0.99511  -0.09873
           Z           -0.00850   0.09874   0.99508
 This molecule is an asymmetric top.
 Rotational symmetry number  1.
 Rotational temperatures (Kelvin)      1.93863     0.22065     0.20588
 Rotational constants (GHZ):          40.39461     4.59759     4.28987
 Zero-point vibrational energy     155107.8 (Joules/Mol)
                                   37.07165 (Kcal/Mol)
 Warning -- explicit consideration of   4 degrees of freedom as
           vibrations may cause significant error
 Vibrational temperatures:    128.36   346.28   498.16   759.70  1021.19
          (Kelvin)           1243.64  1256.21  1390.01  1426.27  1701.80
                             1885.86  1975.72  2037.47  2429.61  4543.97
                             4584.21  4680.62  5401.22

 Zero-point correction=                           0.059077 (Hartree/Particle)
 Thermal correction to Energy=                    0.064091
 Thermal correction to Enthalpy=                  0.065036
 Thermal correction to Gibbs Free Energy=         0.031829
 Sum of electronic and zero-point Energies=           -228.945013
 Sum of electronic and thermal Energies=              -228.939999
 Sum of electronic and thermal Enthalpies=            -228.939055
 Sum of electronic and thermal Free Energies=         -228.972262

                     E (Thermal)             CV                S
                      KCal/Mol        Cal/Mol-Kelvin    Cal/Mol-Kelvin
 Total                   40.218             15.783             69.890
 Electronic               0.000              0.000              0.000
 Translational            0.889              2.981             38.196
 Rotational               0.889              2.981             23.516
 Vibrational             38.440              9.821              8.178
 Vibration     1          0.602              1.957              3.677
 Vibration     2          0.658              1.778              1.798
 Vibration     3          0.724              1.583              1.183
 Vibration     4          0.883              1.188              0.592

 Optimization completed.
    -- Stationary point found.
 Normal termination of Gaussian 09 at Tue Apr 23 16:19:42 2019.

 -----------------------------------------------------------
 #P Geom=AllCheck Guess=TCheck SCRF=Check CCSD(T)/6-31+G(d')
 -----------------------------------------------------------

 Structure from the checkpoint file:  "check.chk"
 ----
 name
 ----
 Charge =  0 Multiplicity = 1

 SCF Done:  E(RHF) =  -227.639799329     A.U. after   14 cycles
 E2 =    -0.6399852544D+00 EUMP2 =    -0.22827978458353D+03
 CCSD(T)
 CCSD(T)= -0.22833177492D+03
 91526\CCSD=-228.3094734\CCSD(T)=-228.3317749\RMSD=6.148e-09\PG=C01 [X(
 Normal termination of Gaussian 09 at Tue Apr 23 16:28:56 2019.

 -----------------------------------------------------
 #P Geom=AllCheck Guess=TCheck SCRF=Check MP4SDQ/CBSB4
 -----------------------------------------------------

 Structure from the checkpoint file:  "check.chk"
 ----
 name
 ----
 Charge =  0 Multiplicity = 1

 SCF Done:  E(RHF) =  -227.653553865     A.U. after   13 cycles
 E2 =    -0.6653331037D+00 EUMP2 =    -0.22831888696893D+03
 Normal termination of Gaussian 09 at Tue Apr 23 16:32:24 2019.

 ----------------------------------------------------------------------
 #P Geom=AllCheck Guess=TCheck SCRF=Check MP2/CBSB3 CBSExtrap=(NMin=10,
 MinPop)
 ----------------------------------------------------------------------

 Structure from the checkpoint file:  "check.chk"
 ----
 name
 ----
 Charge =  0 Multiplicity = 1

                         Standard orientation:
 ---------------------------------------------------------------------
 Center     Atomic      Atomic             Coordinates (Angstroms)
 Number     Number       Type             X           Y           Z
 ---------------------------------------------------------------------
      1          8           0        0.467729   -0.510563   -0.235945
      2          8           0        1.701830    0.191104    0.074890
      3          6           0       -0.576318    0.369974   -0.103595
      4          6           0       -1.806706   -0.068076    0.134094
      5          1           0       -0.303743    1.405979   -0.269235
      6          1           0       -2.634883    0.626890    0.125234
      7          1           0       -2.011412   -1.118711    0.296363
      8          1           0        1.891707   -0.169870    0.953090
 ---------------------------------------------------------------------

 SCF Done:  E(RHF) =  -227.728180549     A.U. after   12 cycles
 E2 =    -0.7993020754D+00 EUMP2 =    -0.22852748262423D+03
 E2(CBS)=      -0.879129 CBS-Int=       0.025316 OIii=       6.591070

 The electronic state is 1-A.
 Alpha  occ. eigenvalues --  -20.64916 -20.64468 -11.30122 -11.22704  -1.49921
 Alpha  occ. eigenvalues --   -1.25895  -1.02243  -0.81002  -0.74566  -0.67794
 Alpha  occ. eigenvalues --   -0.65576  -0.61153  -0.55926  -0.52056  -0.51102
 Alpha  occ. eigenvalues --   -0.36466
 Alpha virt. eigenvalues --    0.04455   0.05536   0.06208   0.07756   0.11144
 Alpha virt. eigenvalues --    0.12460   0.13679   0.15386   0.17532   0.18453
 Alpha virt. eigenvalues --    0.20094   0.20542   0.21275   0.23042   0.25066

 Mulliken charges:
               1
     1  O   -0.128147
     2  O   -0.245417
     3  C   -0.046896
     4  C   -0.212413
     5  H    0.158865
     6  H    0.080143
     7  H    0.103701
     8  H    0.290162
 Sum of Mulliken charges =   0.00000

 Dipole moment (field-independent basis, Debye):
    X=             -0.4034    Y=              0.4456    Z=              1.6128  Tot=              1.7211
 Quadrupole moment (field-independent basis, Debye-Ang):
   XX=            -21.8596   YY=            -23.1972   ZZ=            -24.1840
   XY=             -0.7131   XZ=              3.2877   YZ=             -1.3648

 Normal termination of Gaussian 09 at Tue Apr 23 16:34:01 2019.
