 Gaussian 09, Revision D.01,
 Gaussian 09:  AS64L-G09RevD.01 24-Apr-2013

 ----------------------------------------------------------------------
 #P b3lyp/cbsb7 freq iop(7/33=1) scf=(tight, direct) integral=(grid=ult
 rafine, Acc2E=12) scf=xqc
 ----------------------------------------------------------------------

 ----
 name
 ----
 Symbolic Z-matrix:
 Charge =  0 Multiplicity = 1

                         Standard orientation:
 ---------------------------------------------------------------------
 Center     Atomic      Atomic             Coordinates (Angstroms)
 Number     Number       Type             X           Y           Z
 ---------------------------------------------------------------------
      1          8           0        0.467729   -0.510563   -0.235945
      2          8           0        1.701830    0.191104    0.074890
      3          6           0       -0.576318    0.369973   -0.103595
      4          6           0       -1.806706   -0.068075    0.134094
      5          1           0       -0.303743    1.405978   -0.269235
      6          1           0       -2.634882    0.626889    0.125234
      7          1           0       -2.011412   -1.118712    0.296363
      8          1           0        1.891708   -0.169870    0.953090
 ---------------------------------------------------------------------

 SCF Done:  E(RB3LYP) =  -229.004090365     A.U. after   14 cycles

 The electronic state is 1-A.
 Alpha  occ. eigenvalues --  -19.20181 -19.18639 -10.23204 -10.16596  -1.14492
 Alpha  occ. eigenvalues --   -0.94334  -0.75420  -0.59306  -0.56177  -0.48569
 Alpha  occ. eigenvalues --   -0.46296  -0.44160  -0.39559  -0.34919  -0.31491
 Alpha  occ. eigenvalues --   -0.24914
 Alpha virt. eigenvalues --   -0.01433   0.02233   0.04231   0.07811   0.08591
 Alpha virt. eigenvalues --    0.12505   0.20132   0.27995   0.33727   0.36618
 Alpha virt. eigenvalues --    0.38356   0.41701   0.45159   0.49770   0.50882

 Mulliken charges:
               1
     1  O   -0.203927
     2  O   -0.250679
     3  C    0.096049
     4  C   -0.265384
     5  H    0.115825
     6  H    0.117942
     7  H    0.118601
     8  H    0.271572
 Sum of Mulliken charges =   0.00000

 Dipole moment (field-independent basis, Debye):
    X=             -0.2625    Y=              0.4037    Z=              1.6244  Tot=              1.6943
 Quadrupole moment (field-independent basis, Debye-Ang):
   XX=            -21.7760   YY=            -23.0053   ZZ=            -23.7409
   XY=             -0.8941   XZ=              3.2560   YZ=             -1.1834

  Exact polarizability:  51.002   3.647  26.756   0.003  -1.821  19.606
 Approx polarizability:  73.221   8.189  37.112  -1.995  -2.048  27.191

                      1                      2                      3
                      A                      A                      A
 Frequencies --     88.9060               242.0141               345.9240
 Red. masses --      2.9785                 1.1071                 3.0607
 Frc consts  --      0.0139                 0.0382                 0.2158
 IR Inten    --     17.8094               123.4014                 1.7529

                      4                      5                      6
                      A                      A                      A
 Frequencies --    528.0322               710.1307               864.6392
 Red. masses --      3.6481                 1.5452                 1.6775
 Frc consts  --      0.5993                 0.4591                 0.7389
 IR Inten    --      7.5032                 6.8837                39.5294

                      7                      8                      9
                      A                      A                      A
 Frequencies --    872.9709               966.1336               991.6184
 Red. masses --      2.2107                 1.9954                 1.5270
 Frc consts  --      0.9926                 1.0974                 0.8846
 IR Inten    --     34.4483                 9.3750                30.4330

                     10                     11                     12
                      A                      A                      A
 Frequencies --   1182.7921              1310.7672              1372.7028
 Red. masses --      2.8618                 1.1899                 1.1184
 Frc consts  --      2.3589                 1.2045                 1.2417
 IR Inten    --     69.0230                 1.9754                49.0149

                     13                     14                     15
                      A                      A                      A
 Frequencies --   1415.9688              1688.5279              3157.4515
 Red. masses --      1.1811                 4.5987                 1.0569
 Frc consts  --      1.3952                 7.7250                 6.2082
 IR Inten    --      2.4818                84.1368                 0.9635

                     16                     17                     18
                      A                      A                      A
 Frequencies --   3185.2075              3252.3867              3752.7531
 Red. masses --      1.0974                 1.1169                 1.0689
 Frc consts  --      6.5597                 6.9610                 8.8690
 IR Inten    --      4.6736                 4.4103                37.0713

 - Thermochemistry -
 -------------------
 Temperature   298.150 Kelvin.  Pressure   1.00000 Atm.
 Atom     1 has atomic number  8 and mass  15.99491

 Molecular mass:    60.02113 amu.
 Principal axes and moments of inertia in atomic units:
                           1         2         3
     Eigenvalues --    44.67773 392.54103 420.69851
           X            0.99996  -0.00099   0.00864
           Y            0.00184   0.99511  -0.09873
           Z           -0.00850   0.09874   0.99508
 This molecule is an asymmetric top.
 Rotational symmetry number  1.
 Rotational temperatures (Kelvin)      1.93863     0.22065     0.20588
 Rotational constants (GHZ):          40.39464     4.59759     4.28987
 Zero-point vibrational energy     155089.4 (Joules/Mol)
                                   37.06726 (Kcal/Mol)
 Warning -- explicit consideration of   4 degrees of freedom as
           vibrations may cause significant error
 Vibrational temperatures:    127.92   348.20   497.71   759.72  1021.72
          (Kelvin)           1244.02  1256.01  1390.05  1426.72  1701.77
                             1885.90  1975.01  2037.26  2429.41  4542.86
                             4582.80  4679.45  5399.37

 Zero-point correction=                           0.059070 (Hartree/Particle)
 Thermal correction to Energy=                    0.064083
 Thermal correction to Enthalpy=                  0.065027
 Thermal correction to Gibbs Free Energy=         0.031821
 Sum of electronic and zero-point Energies=           -228.945020
 Sum of electronic and thermal Energies=              -228.940007
 Sum of electronic and thermal Enthalpies=            -228.939063
 Sum of electronic and thermal Free Energies=         -228.972269

                     E (Thermal)             CV                S
                      KCal/Mol        Cal/Mol-Kelvin    Cal/Mol-Kelvin
 Total                   40.213             15.780             69.888
 Electronic               0.000              0.000              0.000
 Translational            0.889              2.981             38.196
 Rotational               0.889              2.981             23.516
 Vibrational             38.435              9.819              8.175
 Vibration     1          0.602              1.957              3.684
 Vibration     2          0.658              1.776              1.788
 Vibration     3          0.724              1.584              1.185
 Vibration     4          0.883              1.188              0.592

 Normal termination of Gaussian 09 at Tue Apr 23 16:35:55 2019.
