 Gaussian 03, Revision D.01,
 Gaussian 03:  AM64L-G03RevD.01 13-Oct-2005

 --------------------------------------------------------------------
 #P iop(7/33=1) opt=calcfc freq b3lyp scf=tight nosym scfcyc=6000 gen
 --------------------------------------------------------------------

 -------------------
 Title Card Required
 -------------------
 Symbolic Z-matrix:
 Charge =  0 Multiplicity = 1

 SCF Done:  E(RB+HF-LYP) =  -79.8617052459     A.U. after    7 cycles
 SCF Done:  E(RB+HF-LYP) =  -79.8617461297     A.U. after    6 cycles
 Optimization completed.
    -- Stationary point found.
 Normal termination of Gaussian 03 at Mon Aug 31 20:20:08 2009.

 ---------------------------------------------------------------------
 #P Geom=AllCheck Guess=Read SCRF=Check Test GenChk RB3LYP/ChkBas Freq
 ---------------------------------------------------------------------

 Title Card Required
 -------------------
 Redundant internal coordinates taken from checkpoint file:
 ethane.chk
 Charge =  0 Multiplicity = 1

                          Input orientation:
 ---------------------------------------------------------------------
 Center     Atomic     Atomic              Coordinates (Angstroms)
 Number     Number      Type              X           Y           Z
 ---------------------------------------------------------------------
    1          6             0       -0.000832   -0.001310   -0.000608
    2          1             0       -0.000586   -0.000919    1.090136
    3          1             0        1.039400   -0.000927   -0.328730
    4          1             0       -0.448531    0.937626   -0.328781
    5          6             0       -0.759767   -1.204578   -0.556937
    6          1             0       -0.760013   -1.204969   -1.647681
    7          1             0       -0.312068   -2.143514   -0.228763
    8          1             0       -1.799999   -1.204961   -0.228814
 ---------------------------------------------------------------------

 SCF Done:  E(RB+HF-LYP) =  -79.8617461297     A.U. after    1 cycles

 Alpha  occ. eigenvalues --  -10.15620 -10.15599  -0.75483  -0.61839  -0.43722
 Alpha  occ. eigenvalues --   -0.43721  -0.37115  -0.34610  -0.34609
 Alpha virt. eigenvalues --    0.00891   0.02907   0.04863   0.04864   0.07924
 Alpha virt. eigenvalues --    0.08440   0.08440   0.13448   0.14120   0.14121
 Alpha virt. eigenvalues --    0.16890   0.16890   0.21410   0.23636   0.25093

 Mulliken atomic charges:
              1
     1  C   -0.300303
     2  H    0.100102
     3  H    0.100094
     4  H    0.100108
     5  C   -0.300303
     6  H    0.100102
     7  H    0.100108
     8  H    0.100094
 Sum of Mulliken charges=   0.00000

 Dipole moment (field-independent basis, Debye):
    X=     0.0000    Y=     0.0000    Z=     0.0000  Tot=     0.0000
 Quadrupole moment (field-independent basis, Debye-Ang):
   XX=   -15.2106   YY=   -15.4644   ZZ=   -15.1329
   XY=    -0.2660   XZ=    -0.1229   YZ=    -0.1950

  Exact polarizability:  27.127   1.332  28.399   0.616   0.976  26.738
 Approx polarizability:  35.200   0.027  35.225   0.012   0.020  35.191

                     1                      2                      3
                     A                      A                      A
 Frequencies --   303.1341               826.9143               827.5027
 Red. masses --     1.0078                 1.0581                 1.0581
 Frc consts  --     0.0546                 0.4263                 0.4269
 IR Inten    --     0.0000                 3.5888                 3.5924

                     4                      5                      6
                     A                      A                      A
 Frequencies --   994.9744              1223.0080              1223.2730
 Red. masses --     3.3793                 1.4675                 1.4674
 Frc consts  --     1.9711                 1.2933                 1.2937
 IR Inten    --     0.0000                 0.0000                 0.0000

                     7                      8                      9
                     A                      A                      A
 Frequencies --  1416.6232              1425.9324              1506.8202
 Red. masses --     1.1984                 1.2401                 1.0187
 Frc consts  --     1.4169                 1.4856                 1.3627
 IR Inten    --     1.2768                 0.0000                 0.0000

                    10                     11                     12
                     A                      A                      A
 Frequencies --  1507.0343              1510.1541              1510.3324
 Red. masses --     1.0187                 1.0620                 1.0620
 Frc consts  --     1.3631                 1.4270                 1.4273
 IR Inten    --     0.0000                 9.6370                 9.6319

                    13                     14                     15
                     A                      A                      A
 Frequencies --  3031.3361              3032.1900              3074.6448
 Red. masses --     1.0358                 1.0340                 1.1012
 Frc consts  --     5.6076                 5.6014                 6.1334
 IR Inten    --     0.0000                60.4703                 0.0000

                    16                     17                     18
                     A                      A                      A
 Frequencies --  3074.8514              3099.6124              3099.8171
 Red. masses --     1.1012                 1.1025                 1.1025
 Frc consts  --     6.1342                 6.2406                 6.2414
 IR Inten    --     0.0000                65.0733                65.0551

 - Thermochemistry -
 -------------------
 Temperature   298.150 Kelvin.  Pressure   1.00000 Atm.
 Atom  1 has atomic number  6 and mass  12.00000

 Molecular mass:    30.04695 amu.
 Principal axes and moments of inertia in atomic units:
                           1         2         3
     EIGENVALUES --    22.27648  90.26127  90.26167
           X            0.49684  -0.55139  -0.67016
           Y            0.78772   0.61060   0.08161
           Z            0.36420  -0.56845   0.73772
 This molecule is an asymmetric top.
 Rotational symmetry number  1.
 Rotational temperatures (Kelvin)      3.88813     0.95959     0.95959
 Rotational constants (GHZ):          81.01553    19.99464    19.99455
 Zero-point vibrational energy     195518.6 (Joules/Mol)
                                   46.73006 (Kcal/Mol)
 Warning -- explicit consideration of   1 degrees of freedom as
           vibrations may cause significant error
 Vibrational temperatures:    436.14  1189.74  1190.59  1431.54  1759.63
          (Kelvin)           1760.01  2038.20  2051.60  2167.98  2168.28
                             2172.77  2173.03  4361.41  4362.64  4423.72
                             4424.02  4459.65  4459.94

 Zero-point correction=                           0.074469 (Hartree/Particle)
 Thermal correction to Energy=                    0.077960
 Thermal correction to Enthalpy=                  0.078905
 Thermal correction to Gibbs Free Energy=         0.051352
 Sum of electronic and zero-point Energies=            -79.787277
 Sum of electronic and thermal Energies=               -79.783786
 Sum of electronic and thermal Enthalpies=             -79.782842
 Sum of electronic and thermal Free Energies=          -79.810394

                     E (Thermal)             CV                S
                      KCal/Mol        Cal/Mol-Kelvin    Cal/Mol-Kelvin
 Total                   48.921             10.095             57.989
 Electronic               0.000              0.000              0.000
 Translational            0.889              2.981             36.134
 Rotational               0.889              2.981             19.834
 Vibrational             47.143              4.133              2.021
 Vibration  1             0.695              1.668              1.400

 Optimization completed.
    -- Stationary point found.
 Normal termination of Gaussian 03 at Mon Aug 31 20:21:29 2009.
