 Gaussian 03, Revision D.01,
 Gaussian 03:  AM64L-G03RevD.01 13-Oct-2005

 --------------------------------------------------
 #P iop(7/33=1) cbs-qb3 scf=tight nosym scfcyc=6000
 --------------------------------------------------

 -------------------
 Title Card Required
 -------------------
 Symbolic Z-matrix:
 Charge =  0 Multiplicity = 1

 SCF Done:  E(RB+HF-LYP) =  -79.8562269289     A.U. after    9 cycles
 SCF Done:  E(RB+HF-LYP) =  -79.8562612654     A.U. after    6 cycles
 Optimization completed.
    -- Stationary point found.
 Normal termination of Gaussian 03 at Thu Mar 25 17:15:44 2010.

 ------------------------------------------------------------
 #P Geom=AllCheck Guess=Read SCRF=Check Test B3LYP/CBSB7 Freq
 ------------------------------------------------------------

 Title Card Required
 -------------------
 Redundant internal coordinates taken from checkpoint file:
 ethane.chk
 Charge =  0 Multiplicity = 1

 SCF Done:  E(RB+HF-LYP) =  -79.8562612654     A.U. after    1 cycles

  Exact polarizability:  25.195   1.013  26.160   0.469   0.743  24.899
 Approx polarizability:  32.148  -0.192  31.965  -0.089  -0.141  32.204

                     1                      2                      3
                     A                      A                      A
 Frequencies --   305.4952               827.1892               827.7554
 Red. masses --     1.0078                 1.0583                 1.0583
 Frc consts  --     0.0554                 0.4266                 0.4272
 IR Inten    --     0.0000                 4.4308                 4.4348

                     4                      5                      6
                     A                      A                      A
 Frequencies --   997.0693              1218.9991              1219.2496
 Red. masses --     3.3331                 1.4691                 1.4690
 Frc consts  --     1.9523                 1.2862                 1.2866
 IR Inten    --     0.0000                 0.0000                 0.0000

                     7                      8                      9
                     A                      A                      A
 Frequencies --  1410.0987              1425.6065              1504.8261
 Red. masses --     1.1983                 1.2459                 1.0180
 Frc consts  --     1.4039                 1.4918                 1.3582
 IR Inten    --     1.5966                 0.0000                 0.0000

                    10                     11                     12
                     A                      A                      A
 Frequencies --  1505.0242              1507.5707              1507.7378
 Red. masses --     1.0180                 1.0618                 1.0617
 Frc consts  --     1.3585                 1.4218                 1.4221
 IR Inten    --     0.0000                10.2762                10.2685

                    13                     14                     15
                     A                      A                      A
 Frequencies --  3025.6166              3026.3263              3071.5501
 Red. masses --     1.0361                 1.0341                 1.1013
 Frc consts  --     5.5885                 5.5799                 6.1215
 IR Inten    --     0.0000                63.2659                 0.0000

                    16                     17                     18
                     A                      A                      A
 Frequencies --  3071.7178              3096.8257              3096.9941
 Red. masses --     1.1013                 1.1025                 1.1025
 Frc consts  --     6.1221                 6.2295                 6.2302
 IR Inten    --     0.0000                76.4500                76.4300

 - Thermochemistry -
 -------------------
 Temperature   298.150 Kelvin.  Pressure   1.00000 Atm.
 Atom  1 has atomic number  6 and mass  12.00000

 Molecular mass:    30.04695 amu.
 Principal axes and moments of inertia in atomic units:
                           1         2         3
     EIGENVALUES --    22.39310  90.64500  90.64541
           X            0.49714  -0.55640  -0.66578
           Y            0.78735   0.61172   0.07670
           Z            0.36460  -0.56233   0.74219
 This molecule is an asymmetric top.
 Rotational symmetry number  1.
 Rotational temperatures (Kelvin)      3.86788     0.95553     0.95552
 Rotational constants (GHZ):          80.59361    19.90999    19.90990
 Zero-point vibrational energy     195264.4 (Joules/Mol)
                                   46.66930 (Kcal/Mol)
 Warning -- explicit consideration of   1 degrees of freedom as
           vibrations may cause significant error
 Vibrational temperatures:    439.54  1190.14  1190.95  1434.56  1753.87
          (Kelvin)           1754.23  2028.82  2051.13  2165.11  2165.39
                             2169.06  2169.30  4353.18  4354.20  4419.27
                             4419.51  4455.64  4455.88

 Zero-point correction=                           0.074372 (Hartree/Particle)
 Thermal correction to Energy=                    0.077861
 Thermal correction to Enthalpy=                  0.078805
 Thermal correction to Gibbs Free Energy=         0.051252
 Sum of electronic and zero-point Energies=            -79.781889
 Sum of electronic and thermal Energies=               -79.778400
 Sum of electronic and thermal Enthalpies=             -79.777456
 Sum of electronic and thermal Free Energies=          -79.805009

                     E (Thermal)             CV                S
                      KCal/Mol        Cal/Mol-Kelvin    Cal/Mol-Kelvin
 Total                   48.859             10.097             57.991
 Electronic               0.000              0.000              0.000
 Translational            0.889              2.981             36.134
 Rotational               0.889              2.981             19.848
 Vibrational             47.081              4.135              2.009
 Vibration  1             0.696              1.663              1.387

 Optimization completed.
    -- Stationary point found.
 Normal termination of Gaussian 03 at Thu Mar 25 17:16:24 2010.

 --------------------------------------------------------------
 #P Geom=AllCheck Guess=Read SCRF=Check Test CCSD(T)/6-31+G(d')
 --------------------------------------------------------------

 Title Card Required
 -------------------
 Redundant internal coordinates taken from checkpoint file:
 ethane.chk
 Charge =  0 Multiplicity = 1

 SCF Done:  E(RHF) =  -79.2287375331     A.U. after    9 cycles
 CCSD(T)
 CCSD(T)= -0.79540894703D+02
 5327382\CCSD=-79.5337667\CCSD(T)=-79.5408947\RMSD=8.685e-10\Thermal=0.
 Normal termination of Gaussian 03 at Thu Mar 25 17:17:04 2010.

 --------------------------------------------------------
 #P Geom=AllCheck Guess=Read SCRF=Check Test MP4SDQ/CBSB4
 --------------------------------------------------------

 Title Card Required
 -------------------
 Redundant internal coordinates taken from checkpoint file:
 ethane.chk
 Charge =  0 Multiplicity = 1

 SCF Done:  E(RHF) =  -79.2367194445     A.U. after    8 cycles
 Normal termination of Gaussian 03 at Thu Mar 25 17:17:18 2010.

 ----------------------------------------------------------------------
 #P Geom=AllCheck Guess=Read SCRF=Check Test MP2/CBSB3 CBSExtrap=(NMin=
 10,MinPop)
 ----------------------------------------------------------------------

 Title Card Required
 -------------------
 Redundant internal coordinates taken from checkpoint file:
 ethane.chk
 Charge =  0 Multiplicity = 1

                          Input orientation:
 ---------------------------------------------------------------------
 Center     Atomic     Atomic              Coordinates (Angstroms)
 Number     Number      Type              X           Y           Z
 ---------------------------------------------------------------------
    1          6             0        0.000754    0.001193    0.000552
    2          1             0        0.000740    0.001171    1.094138
    3          1             0        1.043766    0.001171   -0.328202
    4          1             0       -0.447603    0.942895   -0.328253
    5          6             0       -0.760142   -1.203896   -0.557483
    6          1             0       -0.760128   -1.203874   -1.651069
    7          1             0       -0.311785   -2.145598   -0.228678
    8          1             0       -1.803154   -1.203874   -0.228729
 ---------------------------------------------------------------------

 SCF Done:  E(RHF) =  -79.2572346159     A.U. after    8 cycles
 E2 =    -0.3603460989D+00 EUMP2 =    -0.79617580714799D+02
 E2(CBS)=      -0.395850 CBS-Int=       0.013094 OIii=       3.609977

 Alpha  occ. eigenvalues --  -11.21126 -11.21066  -1.01599  -0.84130  -0.59517
 Alpha  occ. eigenvalues --   -0.59516  -0.50956  -0.48634  -0.48633
 Alpha virt. eigenvalues --    0.04407   0.05929   0.06663   0.06663   0.09756
 Alpha virt. eigenvalues --    0.09756   0.14309   0.14924   0.14925   0.17179
 Alpha virt. eigenvalues --    0.19579   0.20138   0.20138   0.20538   0.29272

 Mulliken atomic charges:
              1
     1  C   -0.126833
     2  H    0.042280
     3  H    0.042274
     4  H    0.042279
     5  C   -0.126833
     6  H    0.042280
     7  H    0.042279
     8  H    0.042274
 Sum of Mulliken charges=   0.00000

 Dipole moment (field-independent basis, Debye):
    X=     0.0000    Y=     0.0000    Z=     0.0000  Tot=     0.0000
 Quadrupole moment (field-independent basis, Debye-Ang):
   XX=   -15.1441   YY=   -15.3967   ZZ=   -15.0665
   XY=    -0.2655   XZ=    -0.1228   YZ=    -0.1946

 Normal termination of Gaussian 03 at Thu Mar 25 17:17:42 2010.
