 Gaussian 03, Revision D.01,
 Gaussian 03:  AM64L-G03RevD.01 13-Oct-2005

 ---------------------------------------------------------------
 # opt=(calcfc,modredundant) freq ub3lyp/6-31+g(d,p) scfcyc=6000
 ---------------------------------------------------------------

 -------------------
 Title Card Required
 -------------------
 Symbolic Z-matrix:
 Charge =  0 Multiplicity = 1

 SCF Done:  E(UB+HF-LYP) =  -79.8415416225     A.U. after    7 cycles
 SCF Done:  E(UB+HF-LYP) =  -79.8416429472     A.U. after    6 cycles
 Optimization completed.
    -- Stationary point found.
 SCF Done:  E(UB+HF-LYP) =  -79.8403878213     A.U. after   10 cycles
 SCF Done:  E(UB+HF-LYP) =  -79.8413373685     A.U. after   10 cycles
 SCF Done:  E(UB+HF-LYP) =  -79.8413734420     A.U. after    9 cycles
 Optimization completed.
 SCF Done:  E(UB+HF-LYP) =  -79.8395916207     A.U. after    9 cycles
 SCF Done:  E(UB+HF-LYP) =  -79.8406040136     A.U. after    8 cycles
 SCF Done:  E(UB+HF-LYP) =  -79.8406256625     A.U. after   11 cycles
 SCF Done:  E(UB+HF-LYP) =  -79.8384318151     A.U. after    9 cycles
 SCF Done:  E(UB+HF-LYP) =  -79.8395379458     A.U. after    8 cycles
 SCF Done:  E(UB+HF-LYP) =  -79.8394460543     A.U. after   10 cycles
 SCF Done:  E(UB+HF-LYP) =  -79.8406119314     A.U. after   10 cycles
 SCF Done:  E(UB+HF-LYP) =  -79.8406257155     A.U. after    7 cycles
 SCF Done:  E(UB+HF-LYP) =  -79.8403095294     A.U. after   10 cycles
 SCF Done:  E(UB+HF-LYP) =  -79.8413629974     A.U. after   10 cycles
 SCF Done:  E(UB+HF-LYP) =  -79.8413734863     A.U. after   10 cycles
 SCF Done:  E(UB+HF-LYP) =  -79.8406474636     A.U. after   10 cycles
 SCF Done:  E(UB+HF-LYP) =  -79.8416306188     A.U. after    8 cycles
 SCF Done:  E(UB+HF-LYP) =  -79.8416485557     A.U. after   11 cycles
    -- Stationary point found.
 Normal termination of Gaussian 03 at Wed Mar 24 18:44:26 2010.

 ---------------------------------------------------------------------
 #N Geom=AllCheck Guess=Read SCRF=Check GenChk UB3LYP/6-31+G(d,p) Freq
 ---------------------------------------------------------------------

 Title Card Required
 -------------------
 Redundant internal coordinates taken from checkpoint file:
 ethane_scan_1.chk
 Charge =  0 Multiplicity = 1

                         Standard orientation:
 ---------------------------------------------------------------------
 Center     Atomic     Atomic              Coordinates (Angstroms)
 Number     Number      Type              X           Y           Z
 ---------------------------------------------------------------------
    1          6             0       -0.766049   -0.000002   -0.000010
    2          1             0       -1.164807    0.990767    0.244405
    3          1             0       -1.165147   -0.283664   -0.980157
    4          1             0       -1.164870   -0.707020    0.735815
    5          6             0        0.766049   -0.000014   -0.000017
    6          1             0        1.164992   -0.990716   -0.244419
    7          1             0        1.165077    0.707038   -0.735727
    8          1             0        1.164753    0.283693    0.980244
 ---------------------------------------------------------------------

 SCF Done:  E(UB+HF-LYP) =  -79.8416485557     A.U. after    1 cycles

 The electronic state is 1-A.
 Alpha  occ. eigenvalues --  -10.17807 -10.17786  -0.75302  -0.61716  -0.43470
 Alpha  occ. eigenvalues --   -0.43469  -0.36861  -0.34448  -0.34448
 Alpha virt. eigenvalues --    0.01749   0.03028   0.05368   0.05369   0.08040
 Alpha virt. eigenvalues --    0.08966   0.08966   0.14268   0.19587   0.19587
 Alpha virt. eigenvalues --    0.19778   0.19779   0.25503   0.29764   0.32688

  Beta  occ. eigenvalues --  -10.17807 -10.17786  -0.75302  -0.61716  -0.43470
  Beta  occ. eigenvalues --   -0.43469  -0.36861  -0.34448  -0.34448
  Beta virt. eigenvalues --    0.01749   0.03028   0.05368   0.05369   0.08040
  Beta virt. eigenvalues --    0.08966   0.08966   0.14268   0.19587   0.19587
  Beta virt. eigenvalues --    0.19778   0.19779   0.25503   0.29764   0.32688

 Mulliken atomic charges:
              1
     1  C   -0.434346
     2  H    0.144784
     3  H    0.144780
     4  H    0.144781
     5  C   -0.434346
     6  H    0.144784
     7  H    0.144776
     8  H    0.144786
 Sum of Mulliken charges=   0.00000

 Dipole moment (field-independent basis, Debye):
    X=     0.0000    Y=     0.0000    Z=     0.0001  Tot=     0.0001
 Quadrupole moment (field-independent basis, Debye-Ang):
   XX=   -15.7615   YY=   -15.0767   ZZ=   -15.0769
   XY=     0.0001   XZ=     0.0000   YZ=     0.0000

  Exact polarizability:  27.362   0.000  24.574   0.000   0.000  24.574
 Approx polarizability:  31.269   0.001  31.725   0.000   0.000  31.725

                     1                      2                      3
                     A                      A                      A
 Frequencies --   311.9146               825.2066               826.0801
 Red. masses --     1.0078                 1.0578                 1.0577
 Frc consts  --     0.0578                 0.4244                 0.4253
 IR Inten    --     0.0000                 4.1624                 4.1531

                     4                      5                      6
                     A                      A                      A
 Frequencies --   999.4175              1219.7310              1221.1442
 Red. masses --     3.2957                 1.4668                 1.4672
 Frc consts  --     1.9395                 1.2857                 1.2891
 IR Inten    --     0.0000                 0.0000                 0.0000

                     7                      8                      9
                     A                      A                      A
 Frequencies --  1410.4008              1431.1607              1508.3023
 Red. masses --     1.1982                 1.2503                 1.0187
 Frc consts  --     1.4044                 1.5089                 1.3655
 IR Inten    --     1.1164                 0.0000                 0.0018

                    10                     11                     12
                     A                      A                      A
 Frequencies --  1508.4430              1509.7554              1510.5131
 Red. masses --     1.0189                 1.0620                 1.0620
 Frc consts  --     1.3659                 1.4263                 1.4276
 IR Inten    --     0.0044                11.7008                11.6973

                    13                     14                     15
                     A                      A                      A
 Frequencies --  3036.3149              3037.2340              3089.5370
 Red. masses --     1.0341                 1.0367                 1.1016
 Frc consts  --     5.6172                 5.6346                 6.1953
 IR Inten    --    69.1668                 0.0047                 0.0009

                    16                     17                     18
                     A                      A                      A
 Frequencies --  3089.8433              3113.0343              3113.2924
 Red. masses --     1.1016                 1.1028                 1.1028
 Frc consts  --     6.1963                 6.2967                 6.2977
 IR Inten    --     0.0010                72.7939                72.8138

 - Thermochemistry -
 -------------------
 Temperature   298.150 Kelvin.  Pressure   1.00000 Atm.
 Atom  1 has atomic number  6 and mass  12.00000

 Molecular mass:    30.04695 amu.
 Principal axes and moments of inertia in atomic units:
                           1         2         3
     EIGENVALUES --    22.48532  90.84221  90.84252
           X            1.00000   0.00000   0.00000
           Y            0.00000   1.00000  -0.00001
           Z            0.00000   0.00001   1.00000
 This molecule is an asymmetric top.
 Rotational symmetry number  1.
 Rotational temperatures (Kelvin)      3.85202     0.95345     0.95345
 Rotational constants (GHZ):          80.26309    19.86677    19.86670
 Zero-point vibrational energy     195956.2 (Joules/Mol)
                                   46.83467 (Kcal/Mol)
 Warning -- explicit consideration of   1 degrees of freedom as
           vibrations may cause significant error
 Vibrational temperatures:    448.78  1187.29  1188.54  1437.94  1754.92
          (Kelvin)           1756.95  2029.25  2059.12  2170.11  2170.31
                             2172.20  2173.29  4368.57  4369.90  4445.15
                             4445.59  4478.96  4479.33

 Zero-point correction=                           0.074636 (Hartree/Particle)
 Thermal correction to Energy=                    0.078117
 Thermal correction to Enthalpy=                  0.079061
 Thermal correction to Gibbs Free Energy=         0.051520
 Sum of electronic and zero-point Energies=            -79.767013
 Sum of electronic and thermal Energies=               -79.763532
 Sum of electronic and thermal Enthalpies=             -79.762588
 Sum of electronic and thermal Free Energies=          -79.790129

                     E (Thermal)             CV                S
                      KCal/Mol        Cal/Mol-Kelvin    Cal/Mol-Kelvin
 Total                   49.019             10.081             57.965
 Electronic               0.000              0.000              0.000
 Translational            0.889              2.981             36.134
 Rotational               0.889              2.981             19.856
 Vibrational             47.242              4.120              1.975
 Vibration  1             0.700              1.651              1.352

 Optimization completed.
    -- Stationary point found.
 Normal termination of Gaussian 03 at Wed Mar 24 18:45:46 2010.
